
.Version 5.6.3  of ABINIT 
.(sequential version, prepared for a x86_64_linux_gcc4.3 computer) 

.Copyright (C) 1998-2008 ABINIT group . 
 ABINIT comes with ABSOLUTELY NO WARRANTY.
 It is free software, and you are welcome to redistribute it
 under certain conditions (GNU General Public License,
 see ~abinit/COPYING or http://www.gnu.org/copyleft/gpl.txt).

 ABINIT is a project of the Universite Catholique de Louvain,
 Corning Inc. and other collaborators, see ~abinit/doc/developers/contributors.txt .
 Please read ~abinit/doc/users/acknowledgments.html for suggested
 acknowledgments of the ABINIT effort.
 For more information, see http://www.abinit.org .

.Starting date : Thu  6 Nov 2008.
  
- input  file    -> /home/gonze/ABINIT/ABINITv5.6.3/test_gcc43/5.6.3-private/tests/fast/Input/t04.in
- output file    -> t04.out
- root for input  files -> t04i
- root for output files -> t04o


 Symmetries : space group F-4 3 m (#216); Bravais cF (face-center cubic)
================================================================================
 Values of the parameters that define the memory need of the present run
   intxc =         1  ionmov =         0    iscf =         3 xclevel =         1
  lmnmax =         4   lnmax =         4   mband =         4  mffmem =         0
P  mgfft =        16   mkmem =         0 mpssoang=         3     mpw =       184
  mqgrid =      3001   natom =         2    nfft =      4096    nkpt =         2
  nloalg =         4  nspden =         1 nspinor =         1  nsppol =         1
    nsym =        24  n1xccc =      2501  ntypat =         1  occopt =         0
================================================================================
P This job should need less than                       1.347 Mbytes of memory.
  Rough estimation (10% accuracy) of disk space for files :
  WF disk file :      0.024 Mbytes ; DEN or POT disk file :      0.033 Mbytes.
  mkmem==0 => use of 2 WF temporary disk files
  mffmem==0, iscf==3 => use of 1 FFT temporary disk file,
                       4 times bigger than a DEN file.
================================================================================

 -outvars: echo values of preprocessed input variables --------
     acell    1.0263110000E+01  1.0263110000E+01  1.0263110000E+01 Bohr
       amu    2.80855000E+01
    diemac    1.20000000E+01
      ecut    5.80000000E+00 Hartree
    enunit         2
     intxc         1
      iscf         3
       kpt    1.00000000E+00  1.00000000E+00  1.00000000E+00
              1.00000000E+00  2.00000000E+00  2.00000000E+00
    kptnrm    4.00000000E+00
    mffmem         0
P    mkmem         0
     natom         2
     nband         4
     ngfft        16      16      16
      nkpt         2
     nstep        20
      nsym        24
    ntypat         1
       occ    2.000000  2.000000  2.000000  2.000000
    occopt         0
     rprim    0.0000000000E+00  5.0000000000E-01  5.0000000000E-01
              5.0000000000E-01  0.0000000000E+00  5.0000000000E-01
              5.0000000000E-01  5.0000000000E-01  0.0000000000E+00
   spgroup       216
    symrel    1  0  0   0  1  0   0  0  1       0  1 -1   1  0 -1   0  0 -1
              0 -1  1   0 -1  0   1 -1  0      -1  0  0  -1  0  1  -1  1  0
              0  1  0   0  0  1   1  0  0       1  0 -1   0  0 -1   0  1 -1
              0 -1  0   1 -1  0   0 -1  1      -1  0  1  -1  1  0  -1  0  0
              0  0  1   1  0  0   0  1  0       0  0 -1   0  1 -1   1  0 -1
              1 -1  0   0 -1  1   0 -1  0      -1  1  0  -1  0  0  -1  0  1
              1  0 -1   0  1 -1   0  0 -1       0  1  0   1  0  0   0  0  1
             -1  0  1  -1  0  0  -1  1  0       0 -1  0   0 -1  1   1 -1  0
             -1  1  0  -1  0  1  -1  0  0       1 -1  0   0 -1  0   0 -1  1
              0  0 -1   1  0 -1   0  1 -1       0  0  1   0  1  0   1  0  0
              0 -1  1   1 -1  0   0 -1  0      -1  0  0  -1  1  0  -1  0  1
              1  0  0   0  0  1   0  1  0       0  1 -1   0  0 -1   1  0 -1
    tolmxf    1.00000000E-04
    tolwfr    1.00000000E-15
     typat    1  1
       wtk      0.25000    0.75000
    xangst    0.0000000000E+00  0.0000000000E+00  0.0000000000E+00
              1.3577509753E+00  1.3577509753E+00  1.3577509753E+00
     xcart    0.0000000000E+00  0.0000000000E+00  0.0000000000E+00
              2.5657775000E+00  2.5657775000E+00  2.5657775000E+00
      xred    0.0000000000E+00  0.0000000000E+00  0.0000000000E+00
              2.5000000000E-01  2.5000000000E-01  2.5000000000E-01
     znucl     14.00000

================================================================================

 chkinp: Checking input parameters for consistency.

================================================================================
== DATASET  1 ==================================================================

 Real(R)+Recip(G) space primitive vectors, cartesian coordinates (Bohr,Bohr^-1):
 R(1)=  0.0000000  5.1315550  5.1315550  G(1)= -0.0974364  0.0974364  0.0974364
 R(2)=  5.1315550  0.0000000  5.1315550  G(2)=  0.0974364 -0.0974364  0.0974364
 R(3)=  5.1315550  5.1315550  0.0000000  G(3)=  0.0974364  0.0974364 -0.0974364
 Unit cell volume ucvol=  2.7025701E+02 bohr^3
 Angles (23,13,12)=  6.00000000E+01  6.00000000E+01  6.00000000E+01 degrees

 getcut: wavevector=  0.0000  0.0000  0.0000  ngfft=  16  16  16
         ecut(hartree)=      5.800   => boxcut(ratio)=   2.03365

--- Pseudopotential description ------------------------------------------------
- pspini: atom type   1  psp file is /home/gonze/ABINIT/ABINITv5.6.3/test_gcc43/5.6.3-private/tests/Psps_for_tests/14si.psp
- pspatm: opening atomic psp file    /home/gonze/ABINIT/ABINITv5.6.3/test_gcc43/5.6.3-private/tests/Psps_for_tests/14si.psp
   Si  Fri Oct 08 11:18:59 1993
  14.00000   4.00000    930920                znucl, zion, pspdat
    1    1    2    2      2001   0.00050      pspcod,pspxc,lmax,lloc,mmax,r2well
    0  19.464  25.000    2   1.8971118        l,e99.0,e99.9,nproj,rcpsp
   0.00112760   6.14571089   4.47651660  29.74712295     rms, ekb1, ekb2, epsatm
    1  21.459  28.812    2   1.8971118        l,e99.0,e99.9,nproj,rcpsp
   0.00119946   3.20906540   2.09352485  19.11150542     rms, ekb1, ekb2, epsatm
    2   8.223  21.459    0   1.8971118        l,e99.0,e99.9,nproj,rcpsp
   0.00098688   0.00000000   0.00000000  -3.97301006     rms, ekb1, ekb2, epsatm
    1.70000000000000    0.22513330685109    0.96523597101781   rchrg,fchrg,qchrg
 pspatm: epsatm=   -3.97301006
         --- l  ekb(1:nproj) -->
             0    6.145711    4.476517
             1    3.209065    2.093525
 pspatm: atomic psp has been read  and splines computed

  -6.35681610E+01                                ecore*ucvol(ha*bohr**3)
--------------------------------------------------------------------------------

P newkpt: treating      4 bands with npw=     177 for ikpt=   1
P newkpt: treating      4 bands with npw=     184 for ikpt=   2

 setup2: Arith. and geom. avg. npw (full set) are     182.250     182.224

================================================================================

     iter   Etot(hartree)      deltaE(h)  residm     vres2    diffor    maxfor
 ETOT  1  -8.5842352747344    -8.584E+00 1.491E-03 1.877E+00 1.343E-26 1.343E-26
 ETOT  2  -8.5877882533166    -3.553E-03 1.384E-08 5.325E-02 1.763E-26 4.198E-27
 ETOT  3  -8.5878398498721    -5.160E-05 1.596E-07 9.809E-04 4.198E-27 0.000E+00
 ETOT  4  -8.5878404593342    -6.095E-07 3.877E-09 3.052E-05 1.312E-29 1.312E-29
 ETOT  5  -8.5878404891761    -2.984E-08 3.858E-10 1.547E-06 1.476E-29 4.919E-30
 ETOT  6  -8.5878404918937    -2.718E-09 4.052E-11 1.066E-07 4.919E-30 0.000E+00
 ETOT  7  -8.5878404920529    -1.592E-10 1.574E-12 5.081E-09 8.199E-31 8.199E-31
 ETOT  8  -8.5878404920566    -3.697E-12 2.626E-14 3.825E-10 2.460E-30 2.460E-30
 ETOT  9  -8.5878404920570    -3.642E-13 4.613E-15 2.180E-11 2.870E-30 4.099E-31
 ETOT 10  -8.5878404920570    -1.776E-15 6.463E-16 1.217E-12 4.099E-31 0.000E+00

 At SCF step   10   max residual=  6.46E-16 < tolwfr=  1.00E-15 =>converged.

 Cartesian components of stress tensor (hartree/bohr^3)
  sigma(1 1)= -3.10726266E-05  sigma(3 2)=  0.00000000E+00
  sigma(2 2)= -3.10726266E-05  sigma(3 1)=  0.00000000E+00
  sigma(3 3)= -3.10726266E-05  sigma(2 1)=  0.00000000E+00

================================================================================

 ----iterations are completed or convergence reached----

 Mean square residual over all n,k,spin=   4.6463E-16; max=  6.4628E-16
   0.2500  0.2500  0.2500    1  5.31802E-16 kpt; spin; max resid(k); each band:
 5.32E-16 3.48E-16 4.47E-16 4.51E-16
   0.2500  0.5000  0.5000    1  6.46276E-16 kpt; spin; max resid(k); each band:
 6.46E-16 5.34E-16 5.45E-16 2.15E-16
 reduced coordinates (array xred) for    2 atoms
       0.000000000000      0.000000000000      0.000000000000
       0.250000000000      0.250000000000      0.250000000000
 rms dE/dt=  0.0000E+00; max dE/dt=  0.0000E+00; dE/dt below (all hartree)
    1       0.000000000000      0.000000000000      0.000000000000
    2       0.000000000000      0.000000000000      0.000000000000

 cartesian coordinates (angstrom) at end:
    1      0.00000000000000     0.00000000000000     0.00000000000000
    2      1.35775097531303     1.35775097531303     1.35775097531303

 cartesian forces (hartree/bohr) at end:
    1     -0.00000000000000    -0.00000000000000    -0.00000000000000
    2     -0.00000000000000    -0.00000000000000    -0.00000000000000
 frms,max,avg= 0.0000000E+00 0.0000000E+00   0.000E+00  0.000E+00  0.000E+00 h/b

 cartesian forces (eV/Angstrom) at end:
    1     -0.00000000000000    -0.00000000000000    -0.00000000000000
    2     -0.00000000000000    -0.00000000000000    -0.00000000000000
 frms,max,avg= 0.0000000E+00 0.0000000E+00   0.000E+00  0.000E+00  0.000E+00 e/A
 length scales= 10.263110000000 10.263110000000 10.263110000000 bohr
              =  5.431003901252  5.431003901252  5.431003901252 angstroms
 prteigrs : about to open file t04o_EIG
 Fermi (or HOMO) energy (hartree) =   0.23746   Average Vxc (hartree)=  -0.35073
 Eigenvalues (hartree) for nkpt=   2  k points:
 kpt#   1, nband=  4, wtk=  0.25000, kpt=  0.2500  0.2500  0.2500 (reduced coord)
  -0.15179   0.11761   0.23746   0.23746
 kpt#   2, nband=  4, wtk=  0.75000, kpt=  0.2500  0.5000  0.5000 (reduced coord)
  -0.08001   0.02604   0.13045   0.18180
 Fermi (or HOMO) energy (eV) =   6.46152   Average Vxc (eV)=  -9.54390
 Eigenvalues (   eV  ) for nkpt=   2  k points:
 kpt#   1, nband=  4, wtk=  0.25000, kpt=  0.2500  0.2500  0.2500 (reduced coord)
  -4.13042   3.20039   6.46152   6.46152
 kpt#   2, nband=  4, wtk=  0.75000, kpt=  0.2500  0.5000  0.5000 (reduced coord)
  -2.17720   0.70858   3.54978   4.94690
 Total charge density [el/Bohr^3]
,     Maximum=    8.8616E-02  at reduced coord.    0.1250    0.1250    0.6250
,Next maximum=    8.8616E-02  at reduced coord.    0.1250    0.6250    0.1250
,     Minimum=    3.2389E-03  at reduced coord.    0.7500    0.7500    0.7500
,Next minimum=    3.2389E-03  at reduced coord.    0.5000    0.5000    0.5000

--------------------------------------------------------------------------------
 Components of total free energy (in Hartree) :

    Kinetic energy  =  2.96592924539604E+00
    Hartree energy  =  5.19866999229635E-01
    XC energy       = -3.30418305863598E+00
    Ewald energy    = -8.39791921808003E+00
    PspCore energy  = -2.35213740360010E-01
    Loc. psp. energy= -2.03259244313213E+00
    NL   psp  energy=  1.89627172352551E+00
    >>>>>>>>> Etotal= -8.58784049205697E+00

 Other information on the energy :
    Total energy(eV)= -2.33687024157813E+02 ; Band energy (Ha)=   6.0778267449E-01
--------------------------------------------------------------------------------

 Cartesian components of stress tensor (hartree/bohr^3)
  sigma(1 1)= -3.10726266E-05  sigma(3 2)=  0.00000000E+00
  sigma(2 2)= -3.10726266E-05  sigma(3 1)=  0.00000000E+00
  sigma(3 3)= -3.10726266E-05  sigma(2 1)=  0.00000000E+00

-Cartesian components of stress tensor (GPa)         [Pressure=  9.1419E-01 GPa]
- sigma(1 1)= -9.14188082E-01  sigma(3 2)=  0.00000000E+00
- sigma(2 2)= -9.14188082E-01  sigma(3 1)=  0.00000000E+00
- sigma(3 3)= -9.14188082E-01  sigma(2 1)=  0.00000000E+00

== END DATASET(S) ==============================================================
================================================================================
  
 -outvars: echo values of variables after computation  --------
     acell    1.0263110000E+01  1.0263110000E+01  1.0263110000E+01 Bohr
       amu    2.80855000E+01
    diemac    1.20000000E+01
      ecut    5.80000000E+00 Hartree
    enunit         2
    etotal   -8.5878404921E+00
     fcart   -0.0000000000E+00 -0.0000000000E+00 -0.0000000000E+00
             -0.0000000000E+00 -0.0000000000E+00 -0.0000000000E+00
     intxc         1
      iscf         3
       kpt    1.00000000E+00  1.00000000E+00  1.00000000E+00
              1.00000000E+00  2.00000000E+00  2.00000000E+00
    kptnrm    4.00000000E+00
    mffmem         0
P    mkmem         0
     natom         2
     nband         4
     ngfft        16      16      16
      nkpt         2
     nstep        20
      nsym        24
    ntypat         1
       occ    2.000000  2.000000  2.000000  2.000000
    occopt         0
     rprim    0.0000000000E+00  5.0000000000E-01  5.0000000000E-01
              5.0000000000E-01  0.0000000000E+00  5.0000000000E-01
              5.0000000000E-01  5.0000000000E-01  0.0000000000E+00
   spgroup       216
    strten   -3.1072626564E-05 -3.1072626564E-05 -3.1072626564E-05
              0.0000000000E+00  0.0000000000E+00  0.0000000000E+00
    symrel    1  0  0   0  1  0   0  0  1       0  1 -1   1  0 -1   0  0 -1
              0 -1  1   0 -1  0   1 -1  0      -1  0  0  -1  0  1  -1  1  0
              0  1  0   0  0  1   1  0  0       1  0 -1   0  0 -1   0  1 -1
              0 -1  0   1 -1  0   0 -1  1      -1  0  1  -1  1  0  -1  0  0
              0  0  1   1  0  0   0  1  0       0  0 -1   0  1 -1   1  0 -1
              1 -1  0   0 -1  1   0 -1  0      -1  1  0  -1  0  0  -1  0  1
              1  0 -1   0  1 -1   0  0 -1       0  1  0   1  0  0   0  0  1
             -1  0  1  -1  0  0  -1  1  0       0 -1  0   0 -1  1   1 -1  0
             -1  1  0  -1  0  1  -1  0  0       1 -1  0   0 -1  0   0 -1  1
              0  0 -1   1  0 -1   0  1 -1       0  0  1   0  1  0   1  0  0
              0 -1  1   1 -1  0   0 -1  0      -1  0  0  -1  1  0  -1  0  1
              1  0  0   0  0  1   0  1  0       0  1 -1   0  0 -1   1  0 -1
    tolmxf    1.00000000E-04
    tolwfr    1.00000000E-15
     typat    1  1
       wtk      0.25000    0.75000
    xangst    0.0000000000E+00  0.0000000000E+00  0.0000000000E+00
              1.3577509753E+00  1.3577509753E+00  1.3577509753E+00
     xcart    0.0000000000E+00  0.0000000000E+00  0.0000000000E+00
              2.5657775000E+00  2.5657775000E+00  2.5657775000E+00
      xred    0.0000000000E+00  0.0000000000E+00  0.0000000000E+00
              2.5000000000E-01  2.5000000000E-01  2.5000000000E-01
     znucl     14.00000

================================================================================

- Total cpu        time (s,m,h):          1.5        0.03      0.000
- Total wall clock time (s,m,h):          1.5        0.03      0.000

- For major independent code sections, cpu and wall times (sec),
- as well as % of the total time and number of calls 

- routine                 cpu     %       wall     %      number of calls 
-                                                          (-1=no count)
- timing timab           0.512  33.2      0.510  33.1             12
- pspini                 0.425  27.6      0.425  27.6              1
- invars2                0.119   7.7      0.119   7.7              1
- fourwf(pot)            0.081   5.3      0.090   5.8            443
- abinit(2)              0.034   2.2      0.034   2.2              1
- forces                 0.027   1.8      0.026   1.7             10
- nonlop(apply)          0.019   1.2      0.010   0.6            443
- fourwf(den)            0.013   0.8      0.014   0.9             80
- mkcore                 0.013   0.8      0.011   0.7             12
- fourdp                 0.010   0.6      0.009   0.6             95
- symrhg(no FFT)         0.009   0.6      0.008   0.5             10
- xc:pot/=fourdp         0.009   0.6      0.008   0.5             11
- projbd                 0.008   0.5      0.005   0.3            694
- rwwf                   0.008   0.5      0.005   0.3             48
- 56   others            0.033   2.1      0.039   2.5

- subtotal               1.320  85.7      1.313  85.3

================================================================================

 Calculation completed.
.Delivered    5 WARNINGs and   0 COMMENTs to log file.
+Overall time at end (sec) : cpu=          1.5  wall=          1.5
