
.Version 5.6.3  of ABINIT 
.(sequential version, prepared for a x86_64_linux_gcc4.3 computer) 

.Copyright (C) 1998-2008 ABINIT group . 
 ABINIT comes with ABSOLUTELY NO WARRANTY.
 It is free software, and you are welcome to redistribute it
 under certain conditions (GNU General Public License,
 see ~abinit/COPYING or http://www.gnu.org/copyleft/gpl.txt).

 ABINIT is a project of the Universite Catholique de Louvain,
 Corning Inc. and other collaborators, see ~abinit/doc/developers/contributors.txt .
 Please read ~abinit/doc/users/acknowledgments.html for suggested
 acknowledgments of the ABINIT effort.
 For more information, see http://www.abinit.org .

.Starting date : Thu  6 Nov 2008.
  
- input  file    -> /home/gonze/ABINIT/ABINITv5.6.3/test_gcc43/5.6.3-private/tests/fast/Input/t05.in
- output file    -> t05.out
- root for input  files -> t03o
- root for output files -> t05o


 Symmetries : space group F-4 3 m (#216); Bravais cF (face-center cubic)
================================================================================
 Values of the parameters that define the memory need of the present run
   intxc =         1  ionmov =         0    iscf =         5 xclevel =         1
  lmnmax =         2   lnmax =         2   mband =         4  mffmem =         1
P  mgfft =        16   mkmem =         2 mpssoang=         3     mpw =       184
  mqgrid =      3001   natom =         2    nfft =      4096    nkpt =         2
  nloalg =         4  nspden =         1 nspinor =         1  nsppol =         1
    nsym =        24  n1xccc =      2501  ntypat =         1  occopt =         0
================================================================================
P This job should need less than                       1.578 Mbytes of memory.
  Rough estimation (10% accuracy) of disk space for files :
  WF disk file :      0.024 Mbytes ; DEN or POT disk file :      0.033 Mbytes.
================================================================================

 -outvars: echo values of preprocessed input variables --------
     acell    1.0263110000E+01  1.0263110000E+01  1.0263110000E+01 Bohr
       amu    2.80855000E+01
    diemac    1.20000000E+01
      ecut    5.80000000E+00 Hartree
    enunit         2
     intxc         1
    irdwfk         1
      iscf         5
       kpt    1.00000000E+00  1.00000000E+00  1.00000000E+00
              1.00000000E+00  2.00000000E+00  2.00000000E+00
    kptnrm    4.00000000E+00
P    mkmem         2
     natom         2
     nband         4
     ngfft        16      16      16
      nkpt         2
     nline         3
     nstep        10
      nsym        24
    ntypat         1
       occ    2.000000  2.000000  2.000000  2.000000
    occopt         0
     rprim    0.0000000000E+00  5.0000000000E-01  5.0000000000E-01
              5.0000000000E-01  0.0000000000E+00  5.0000000000E-01
              5.0000000000E-01  5.0000000000E-01  0.0000000000E+00
   spgroup       216
    symrel    1  0  0   0  1  0   0  0  1       0  1 -1   1  0 -1   0  0 -1
              0 -1  1   0 -1  0   1 -1  0      -1  0  0  -1  0  1  -1  1  0
              0  1  0   0  0  1   1  0  0       1  0 -1   0  0 -1   0  1 -1
              0 -1  0   1 -1  0   0 -1  1      -1  0  1  -1  1  0  -1  0  0
              0  0  1   1  0  0   0  1  0       0  0 -1   0  1 -1   1  0 -1
              1 -1  0   0 -1  1   0 -1  0      -1  1  0  -1  0  0  -1  0  1
              1  0 -1   0  1 -1   0  0 -1       0  1  0   1  0  0   0  0  1
             -1  0  1  -1  0  0  -1  1  0       0 -1  0   0 -1  1   1 -1  0
             -1  1  0  -1  0  1  -1  0  0       1 -1  0   0 -1  0   0 -1  1
              0  0 -1   1  0 -1   0  1 -1       0  0  1   0  1  0   1  0  0
              0 -1  1   1 -1  0   0 -1  0      -1  0  0  -1  1  0  -1  0  1
              1  0  0   0  0  1   0  1  0       0  1 -1   0  0 -1   1  0 -1
    tolmxf    1.00000000E-04
    tolwfr    1.00000000E-20
     typat    1  1
       wtk      0.25000    0.75000
    xangst    0.0000000000E+00  0.0000000000E+00  0.0000000000E+00
              1.3577509753E+00  1.3577509753E+00  1.3577509753E+00
     xcart    0.0000000000E+00  0.0000000000E+00  0.0000000000E+00
              2.5657775000E+00  2.5657775000E+00  2.5657775000E+00
      xred    0.0000000000E+00  0.0000000000E+00  0.0000000000E+00
              2.5000000000E-01  2.5000000000E-01  2.5000000000E-01
     znucl     14.00000

================================================================================

 chkinp: Checking input parameters for consistency.

================================================================================
== DATASET  1 ==================================================================

 Real(R)+Recip(G) space primitive vectors, cartesian coordinates (Bohr,Bohr^-1):
 R(1)=  0.0000000  5.1315550  5.1315550  G(1)= -0.0974364  0.0974364  0.0974364
 R(2)=  5.1315550  0.0000000  5.1315550  G(2)=  0.0974364 -0.0974364  0.0974364
 R(3)=  5.1315550  5.1315550  0.0000000  G(3)=  0.0974364  0.0974364 -0.0974364
 Unit cell volume ucvol=  2.7025701E+02 bohr^3
 Angles (23,13,12)=  6.00000000E+01  6.00000000E+01  6.00000000E+01 degrees

 getcut: wavevector=  0.0000  0.0000  0.0000  ngfft=  16  16  16
         ecut(hartree)=      5.800   => boxcut(ratio)=   2.03365

--- Pseudopotential description ------------------------------------------------
- pspini: atom type   1  psp file is /home/gonze/ABINIT/ABINITv5.6.3/test_gcc43/5.6.3-private/tests/Psps_for_tests/14si.pspnc
- pspatm: opening atomic psp file    /home/gonze/ABINIT/ABINITv5.6.3/test_gcc43/5.6.3-private/tests/Psps_for_tests/14si.pspnc
  Troullier-Martins psp for element  Si        Thu Oct 27 17:31:21 EDT 1994
  14.00000   4.00000    940714                znucl, zion, pspdat
    1    1    2    2      2001   0.00000      pspcod,pspxc,lmax,lloc,mmax,r2well
    0   5.907  14.692    1   2.0872718        l,e99.0,e99.9,nproj,rcpsp
   0.00000000   0.00000000   0.00000000   0.00000000     rms, ekb1, ekb2, epsatm
    1   2.617   4.181    1   2.0872718        l,e99.0,e99.9,nproj,rcpsp
   0.00000000   0.00000000   0.00000000   0.00000000     rms, ekb1, ekb2, epsatm
    2   0.000   0.000    0   2.0872718        l,e99.0,e99.9,nproj,rcpsp
   0.00000000   0.00000000   0.00000000   0.00000000     rms, ekb1, ekb2, epsatm
    1.80626423934776    0.22824404341771    1.17378968127746   rchrg,fchrg,qchrg
 pspatm: epsatm=    1.43386982
         --- l  ekb(1:nproj) -->
             0    3.287949
             1    1.849886
 pspatm: atomic psp has been read  and splines computed

   2.29419171E+01                                ecore*ucvol(ha*bohr**3)
--------------------------------------------------------------------------------

-inwffil : will read wavefunctions from disk file t03o_WFK
P newkpt: treating      4 bands with npw=     177 for ikpt=   1
P newkpt: treating      4 bands with npw=     184 for ikpt=   2

 setup2: Arith. and geom. avg. npw (full set) are     182.250     182.224

================================================================================

     iter   Etot(hartree)      deltaE(h)  residm     vres2    diffor    maxfor
 ETOT  1  -8.8578765608032    -8.858E+00 3.653E-08 2.769E-01 5.247E-29 5.247E-29
 ETOT  2  -8.8582420200148    -3.655E-04 1.099E-09 5.384E-03 6.559E-29 1.312E-29
 ETOT  3  -8.8582472843781    -5.264E-06 2.822E-08 9.705E-04 1.312E-29 3.280E-30
 ETOT  4  -8.8582478858347    -6.015E-07 9.803E-10 8.247E-05 1.640E-29 1.640E-29
 ETOT  5  -8.8582479374459    -5.161E-08 2.627E-10 4.687E-06 9.839E-30 6.559E-30
 ETOT  6  -8.8582479417207    -4.275E-09 1.772E-11 6.970E-08 6.559E-30 0.000E+00
 ETOT  7  -8.8582479417571    -3.639E-11 1.654E-13 2.693E-10 4.099E-31 4.099E-31
 ETOT  8  -8.8582479417571    -3.908E-14 1.008E-15 1.401E-10 4.099E-31 0.000E+00
 ETOT  9  -8.8582479417572    -1.030E-13 2.711E-16 1.560E-12 4.099E-31 4.099E-31
 ETOT 10  -8.8582479417572     8.882E-15 6.081E-18 2.620E-14 1.025E-30 6.149E-31

 Cartesian components of stress tensor (hartree/bohr^3)
  sigma(1 1)=  1.12664815E-04  sigma(3 2)=  0.00000000E+00
  sigma(2 2)=  1.12664815E-04  sigma(3 1)=  0.00000000E+00
  sigma(3 3)=  1.12664815E-04  sigma(2 1)=  0.00000000E+00


 scprqt:  WARNING -
  nstep=   10 was not enough SCF cycles to converge;
  maximum residual=  6.081E-18 exceeds tolwfr=  1.000E-20

================================================================================

 ----iterations are completed or convergence reached----

 Mean square residual over all n,k,spin=   2.6244E-18; max=  6.0808E-18
   0.2500  0.2500  0.2500    1  3.27581E-18 kpt; spin; max resid(k); each band:
 1.99E-18 3.28E-18 9.34E-19 9.34E-19
   0.2500  0.5000  0.5000    1  6.08084E-18 kpt; spin; max resid(k); each band:
 2.19E-18 4.12E-18 6.08E-18 1.47E-18
 reduced coordinates (array xred) for    2 atoms
       0.000000000000      0.000000000000      0.000000000000
       0.250000000000      0.250000000000      0.250000000000
 rms dE/dt=  3.2133E-30; max dE/dt=  2.1036E-30; dE/dt below (all hartree)
    1       0.000000000000      0.000000000000      0.000000000000
    2      -0.000000000000     -0.000000000000      0.000000000000

 cartesian coordinates (angstrom) at end:
    1      0.00000000000000     0.00000000000000     0.00000000000000
    2      1.35775097531303     1.35775097531303     1.35775097531303

 cartesian forces (hartree/bohr) at end:
    1      0.00000000000000    -0.00000000000000    -0.00000000000000
    2     -0.00000000000000     0.00000000000000     0.00000000000000
 frms,max,avg= 3.9248756E-31 6.1490983E-31   0.000E+00  0.000E+00  0.000E+00 h/b

 cartesian forces (eV/Angstrom) at end:
    1      0.00000000000000    -0.00000000000000    -0.00000000000000
    2     -0.00000000000000     0.00000000000000     0.00000000000000
 frms,max,avg= 2.0182520E-29 3.1619932E-29   0.000E+00  0.000E+00  0.000E+00 e/A
 length scales= 10.263110000000 10.263110000000 10.263110000000 bohr
              =  5.431003901252  5.431003901252  5.431003901252 angstroms
 prteigrs : about to open file t05o_EIG
 Fermi (or HOMO) energy (hartree) =   0.18607   Average Vxc (hartree)=  -0.35224
 Eigenvalues (hartree) for nkpt=   2  k points:
 kpt#   1, nband=  4, wtk=  0.25000, kpt=  0.2500  0.2500  0.2500 (reduced coord)
  -0.19679   0.06899   0.18607   0.18607
 kpt#   2, nband=  4, wtk=  0.75000, kpt=  0.2500  0.5000  0.5000 (reduced coord)
  -0.12590  -0.02122   0.08223   0.13189
 Fermi (or HOMO) energy (eV) =   5.06324   Average Vxc (eV)=  -9.58505
 Eigenvalues (   eV  ) for nkpt=   2  k points:
 kpt#   1, nband=  4, wtk=  0.25000, kpt=  0.2500  0.2500  0.2500 (reduced coord)
  -5.35495   1.87737   5.06324   5.06324
 kpt#   2, nband=  4, wtk=  0.75000, kpt=  0.2500  0.5000  0.5000 (reduced coord)
  -3.42592  -0.57756   2.23751   3.58879
 Total charge density [el/Bohr^3]
,     Maximum=    8.6611E-02  at reduced coord.    0.1250    0.1250    0.6250
,Next maximum=    8.6611E-02  at reduced coord.    0.1250    0.6250    0.1250
,     Minimum=    3.1215E-03  at reduced coord.    0.5000    0.5000    0.5000
,Next minimum=    3.1215E-03  at reduced coord.    0.7500    0.7500    0.7500

--------------------------------------------------------------------------------
 Components of total free energy (in Hartree) :

    Kinetic energy  =  3.00784354755133E+00
    Hartree energy  =  5.50475058634616E-01
    XC energy       = -3.53413264139803E+00
    Ewald energy    = -8.39791921808003E+00
    PspCore energy  =  8.48892598830441E-02
    Loc. psp. energy= -2.49161790780212E+00
    NL   psp  energy=  1.92221395945397E+00
    >>>>>>>>> Etotal= -8.85824794175722E+00

 Other information on the energy :
    Total energy(eV)= -2.41045185070211E+02 ; Band energy (Ha)=   2.2265272265E-01
--------------------------------------------------------------------------------

 Cartesian components of stress tensor (hartree/bohr^3)
  sigma(1 1)=  1.12664815E-04  sigma(3 2)=  0.00000000E+00
  sigma(2 2)=  1.12664815E-04  sigma(3 1)=  0.00000000E+00
  sigma(3 3)=  1.12664815E-04  sigma(2 1)=  0.00000000E+00

-Cartesian components of stress tensor (GPa)         [Pressure= -3.3147E+00 GPa]
- sigma(1 1)=  3.31471275E+00  sigma(3 2)=  0.00000000E+00
- sigma(2 2)=  3.31471275E+00  sigma(3 1)=  0.00000000E+00
- sigma(3 3)=  3.31471275E+00  sigma(2 1)=  0.00000000E+00

== END DATASET(S) ==============================================================
================================================================================
  
 -outvars: echo values of variables after computation  --------
     acell    1.0263110000E+01  1.0263110000E+01  1.0263110000E+01 Bohr
       amu    2.80855000E+01
    diemac    1.20000000E+01
      ecut    5.80000000E+00 Hartree
    enunit         2
    etotal   -8.8582479418E+00
     fcart    2.0496994387E-31 -2.0496994387E-31 -6.1490983160E-31
             -2.0496994387E-31  2.0496994387E-31  6.1490983160E-31
     intxc         1
    irdwfk         1
      iscf         5
       kpt    1.00000000E+00  1.00000000E+00  1.00000000E+00
              1.00000000E+00  2.00000000E+00  2.00000000E+00
    kptnrm    4.00000000E+00
P    mkmem         2
     natom         2
     nband         4
     ngfft        16      16      16
      nkpt         2
     nline         3
     nstep        10
      nsym        24
    ntypat         1
       occ    2.000000  2.000000  2.000000  2.000000
    occopt         0
     rprim    0.0000000000E+00  5.0000000000E-01  5.0000000000E-01
              5.0000000000E-01  0.0000000000E+00  5.0000000000E-01
              5.0000000000E-01  5.0000000000E-01  0.0000000000E+00
   spgroup       216
    strten    1.1266481541E-04  1.1266481541E-04  1.1266481541E-04
              0.0000000000E+00  0.0000000000E+00  0.0000000000E+00
    symrel    1  0  0   0  1  0   0  0  1       0  1 -1   1  0 -1   0  0 -1
              0 -1  1   0 -1  0   1 -1  0      -1  0  0  -1  0  1  -1  1  0
              0  1  0   0  0  1   1  0  0       1  0 -1   0  0 -1   0  1 -1
              0 -1  0   1 -1  0   0 -1  1      -1  0  1  -1  1  0  -1  0  0
              0  0  1   1  0  0   0  1  0       0  0 -1   0  1 -1   1  0 -1
              1 -1  0   0 -1  1   0 -1  0      -1  1  0  -1  0  0  -1  0  1
              1  0 -1   0  1 -1   0  0 -1       0  1  0   1  0  0   0  0  1
             -1  0  1  -1  0  0  -1  1  0       0 -1  0   0 -1  1   1 -1  0
             -1  1  0  -1  0  1  -1  0  0       1 -1  0   0 -1  0   0 -1  1
              0  0 -1   1  0 -1   0  1 -1       0  0  1   0  1  0   1  0  0
              0 -1  1   1 -1  0   0 -1  0      -1  0  0  -1  1  0  -1  0  1
              1  0  0   0  0  1   0  1  0       0  1 -1   0  0 -1   1  0 -1
    tolmxf    1.00000000E-04
    tolwfr    1.00000000E-20
     typat    1  1
       wtk      0.25000    0.75000
    xangst    0.0000000000E+00  0.0000000000E+00  0.0000000000E+00
              1.3577509753E+00  1.3577509753E+00  1.3577509753E+00
     xcart    0.0000000000E+00  0.0000000000E+00  0.0000000000E+00
              2.5657775000E+00  2.5657775000E+00  2.5657775000E+00
      xred    0.0000000000E+00  0.0000000000E+00  0.0000000000E+00
              2.5000000000E-01  2.5000000000E-01  2.5000000000E-01
     znucl     14.00000

================================================================================

- Total cpu        time (s,m,h):          1.3        0.02      0.000
- Total wall clock time (s,m,h):          1.3        0.02      0.000

- For major independent code sections, cpu and wall times (sec),
- as well as % of the total time and number of calls 

- routine                 cpu     %       wall     %      number of calls 
-                                                          (-1=no count)
- timing timab           0.509  38.9      0.509  38.9             12
- pspini                 0.223  17.0      0.222  17.0              1
- invars2                0.119   9.1      0.119   9.1              1
- fourwf(pot)            0.072   5.5      0.074   5.7            384
- abinit(2)              0.034   2.6      0.034   2.6              1
- forces                 0.029   2.2      0.030   2.3             10
- mkcore                 0.013   1.0      0.014   1.1             12
- xc:pot/=fourdp         0.011   0.8      0.014   1.1             11
- symrhg(no FFT)         0.011   0.8      0.007   0.5             11
- fourwf(den)            0.009   0.7      0.007   0.5             88
- nonlop(apply)          0.009   0.7      0.008   0.6            384
- projbd                 0.008   0.6      0.007   0.5            576
- vtowfk(ssdiag)         0.007   0.5      0.005   0.4             -1
- fourdp                 0.006   0.5      0.012   0.9             98
- 56   others            0.026   2.0      0.027   2.1

- subtotal               1.086  83.0      1.089  83.3

================================================================================

 Calculation completed.
.Delivered    7 WARNINGs and   0 COMMENTs to log file.
+Overall time at end (sec) : cpu=          1.3  wall=          1.3
