
.Version 5.6.3  of ABINIT 
.(sequential version, prepared for a x86_64_linux_gcc4.3 computer) 

.Copyright (C) 1998-2008 ABINIT group . 
 ABINIT comes with ABSOLUTELY NO WARRANTY.
 It is free software, and you are welcome to redistribute it
 under certain conditions (GNU General Public License,
 see ~abinit/COPYING or http://www.gnu.org/copyleft/gpl.txt).

 ABINIT is a project of the Universite Catholique de Louvain,
 Corning Inc. and other collaborators, see ~abinit/doc/developers/contributors.txt .
 Please read ~abinit/doc/users/acknowledgments.html for suggested
 acknowledgments of the ABINIT effort.
 For more information, see http://www.abinit.org .

.Starting date : Thu  6 Nov 2008.
  
- input  file    -> /home/gonze/ABINIT/ABINITv5.6.3/test_gcc43/5.6.3-private/tests/fast/Input/t09.in
- output file    -> t09.out
- root for input  files -> t09i
- root for output files -> t09o


 Symmetries : the space group has not been recognized
================================================================================
 Values of the parameters that define the memory need of the present run
   intxc =         1  ionmov =         0    iscf =        -2 xclevel =         1
  lmnmax =         2   lnmax =         2   mband =         8  mffmem =         1
P  mgfft =        16   mkmem =         2 mpssoang=         3     mpw =       184
  mqgrid =      3001   natom =         2    nfft =      4096    nkpt =         2
  nloalg =         4  nspden =         1 nspinor =         1  nsppol =         1
    nsym =         1  n1xccc =      2501  ntypat =         1  occopt =         0
================================================================================
P This job should need less than                       1.197 Mbytes of memory.
  Rough estimation (10% accuracy) of disk space for files :
  WF disk file :      0.047 Mbytes ; DEN or POT disk file :      0.033 Mbytes.
================================================================================

 -outvars: echo values of preprocessed input variables --------
     acell    1.0263110000E+01  1.0263110000E+01  1.0263110000E+01 Bohr
       amu    2.80855000E+01
      ecut    5.80000000E+00 Hartree
    enunit         2
     intxc         1
    irdwfk         1
      iscf        -2
       kpt    1.00000000E+00  1.00000000E+00  1.00000000E+00
              1.00000000E+00  2.00000000E+00  2.00000000E+00
    kptnrm    4.00000000E+00
P    mkmem         2
     natom         2
     nband         8
     ngfft        16      16      16
      nkpt         2
     nline         3
     nstep        12
      nsym         1
    ntypat         1
    occopt         0
     rprim    0.0000000000E+00  5.0000000000E-01  5.0000000000E-01
              5.0000000000E-01  0.0000000000E+00  5.0000000000E-01
              5.0000000000E-01  5.0000000000E-01  0.0000000000E+00
    tolwfr    1.00000000E-12
     typat    1  1
    xangst    0.0000000000E+00  0.0000000000E+00  0.0000000000E+00
              1.3577509753E+00  1.3577509753E+00  1.3577509753E+00
     xcart    0.0000000000E+00  0.0000000000E+00  0.0000000000E+00
              2.5657775000E+00  2.5657775000E+00  2.5657775000E+00
      xred    0.0000000000E+00  0.0000000000E+00  0.0000000000E+00
              2.5000000000E-01  2.5000000000E-01  2.5000000000E-01
     znucl     14.00000

================================================================================

 chkinp: Checking input parameters for consistency.

================================================================================
== DATASET  1 ==================================================================

 Real(R)+Recip(G) space primitive vectors, cartesian coordinates (Bohr,Bohr^-1):
 R(1)=  0.0000000  5.1315550  5.1315550  G(1)= -0.0974364  0.0974364  0.0974364
 R(2)=  5.1315550  0.0000000  5.1315550  G(2)=  0.0974364 -0.0974364  0.0974364
 R(3)=  5.1315550  5.1315550  0.0000000  G(3)=  0.0974364  0.0974364 -0.0974364
 Unit cell volume ucvol=  2.7025701E+02 bohr^3
 Angles (23,13,12)=  6.00000000E+01  6.00000000E+01  6.00000000E+01 degrees

 getcut: wavevector=  0.0000  0.0000  0.0000  ngfft=  16  16  16
         ecut(hartree)=      5.800   => boxcut(ratio)=   2.03365

--- Pseudopotential description ------------------------------------------------
- pspini: atom type   1  psp file is /home/gonze/ABINIT/ABINITv5.6.3/test_gcc43/5.6.3-private/tests/Psps_for_tests/14si.pspnc
- pspatm: opening atomic psp file    /home/gonze/ABINIT/ABINITv5.6.3/test_gcc43/5.6.3-private/tests/Psps_for_tests/14si.pspnc
  Troullier-Martins psp for element  Si        Thu Oct 27 17:31:21 EDT 1994
  14.00000   4.00000    940714                znucl, zion, pspdat
    1    1    2    2      2001   0.00000      pspcod,pspxc,lmax,lloc,mmax,r2well
    0   5.907  14.692    1   2.0872718        l,e99.0,e99.9,nproj,rcpsp
   0.00000000   0.00000000   0.00000000   0.00000000     rms, ekb1, ekb2, epsatm
    1   2.617   4.181    1   2.0872718        l,e99.0,e99.9,nproj,rcpsp
   0.00000000   0.00000000   0.00000000   0.00000000     rms, ekb1, ekb2, epsatm
    2   0.000   0.000    0   2.0872718        l,e99.0,e99.9,nproj,rcpsp
   0.00000000   0.00000000   0.00000000   0.00000000     rms, ekb1, ekb2, epsatm
    1.80626423934776    0.22824404341771    1.17378968127746   rchrg,fchrg,qchrg
 pspatm: epsatm=    1.43386982
         --- l  ekb(1:nproj) -->
             0    3.287949
             1    1.849886
 pspatm: atomic psp has been read  and splines computed

--------------------------------------------------------------------------------

-inwffil : will read wavefunctions from disk file t09i_WFK
- newkpt: read input wf with ikpt,npw=   1     177, make ikpt,npw=   1     177
- newkpt: read input wf with ikpt,npw=   2     184, make ikpt,npw=   2     184


================================================================================
 prteigrs : about to open file t09o_EIG
 Non-SCF case, kpt    1 (  0.25000  0.25000  0.25000), residuals and eigenvalues=
  2.03E-18  2.55E-18  1.24E-18  1.25E-18  3.39E-13  5.50E-13  4.90E-13  2.05E-09
 -1.9679E-01  6.8992E-02  1.8607E-01  1.8607E-01  2.8495E-01  3.4306E-01
  3.4306E-01  4.6023E-01
  prteigrs : nnsclo,ikpt=   12    1 max resid (incl. the buffer)=  2.05282E-09
 Non-SCF case, kpt    2 (  0.25000  0.50000  0.50000), residuals and eigenvalues=
  1.40E-18  1.86E-18  3.24E-18  2.00E-18  3.36E-13  2.30E-13  4.24E-13  3.16E-13
 -1.2590E-01 -2.1225E-02  8.2227E-02  1.3189E-01  2.6740E-01  3.7652E-01
  4.2197E-01  4.3326E-01

 scprqt:  WARNING -
  nstep=   12 was not enough non-SCF iterations to converge;
  maximum residual=  2.053E-09 exceeds tolwfr=  1.000E-12

================================================================================

 ----iterations are completed or convergence reached----

 Mean square residual over all n,k,spin=   1.2847E-10; max=  2.0528E-09
   0.2500  0.2500  0.2500    1  2.05282E-09 kpt; spin; max resid(k); each band:
 2.03E-18 2.55E-18 1.24E-18 1.25E-18 3.39E-13 5.50E-13 4.90E-13 2.05E-09
   0.2500  0.5000  0.5000    1  4.24206E-13 kpt; spin; max resid(k); each band:
 1.40E-18 1.86E-18 3.24E-18 2.00E-18 3.36E-13 2.30E-13 4.24E-13 3.16E-13
 reduced coordinates (array xred) for    2 atoms
       0.000000000000      0.000000000000      0.000000000000
       0.250000000000      0.250000000000      0.250000000000

 cartesian coordinates (angstrom) at end:
    1      0.00000000000000     0.00000000000000     0.00000000000000
    2      1.35775097531303     1.35775097531303     1.35775097531303
 length scales= 10.263110000000 10.263110000000 10.263110000000 bohr
              =  5.431003901252  5.431003901252  5.431003901252 angstroms
 prteigrs : about to open file t09o_EIG
 Eigenvalues (hartree) for nkpt=   2  k points:
 kpt#   1, nband=  8, wtk=  1.00000, kpt=  0.2500  0.2500  0.2500 (reduced coord)
  -0.19679   0.06899   0.18607   0.18607   0.28495   0.34306   0.34306   0.46023
 kpt#   2, nband=  8, wtk=  1.00000, kpt=  0.2500  0.5000  0.5000 (reduced coord)
  -0.12590  -0.02122   0.08223   0.13189   0.26740   0.37652   0.42197   0.43326
 Eigenvalues (   eV  ) for nkpt=   2  k points:
 kpt#   1, nband=  8, wtk=  1.00000, kpt=  0.2500  0.2500  0.2500 (reduced coord)
  -5.35495   1.87737   5.06324   5.06324   7.75376   9.33522   9.33522  12.52337
 kpt#   2, nband=  8, wtk=  1.00000, kpt=  0.2500  0.5000  0.5000 (reduced coord)
  -3.42592  -0.57756   2.23751   3.58879   7.27630  10.24554  11.48251  11.78958
 Total charge density [el/Bohr^3]
,     Maximum=    8.6611E-02  at reduced coord.    0.1250    0.1250    0.6250
,Next maximum=    8.6611E-02  at reduced coord.    0.1250    0.6250    0.1250
,     Minimum=    3.1215E-03  at reduced coord.    0.5000    0.5000    0.5000
,Next minimum=    3.1215E-03  at reduced coord.    0.7500    0.7500    0.7500

== END DATASET(S) ==============================================================
================================================================================
  
 -outvars: echo values of variables after computation  --------
     acell    1.0263110000E+01  1.0263110000E+01  1.0263110000E+01 Bohr
       amu    2.80855000E+01
      ecut    5.80000000E+00 Hartree
    enunit         2
     intxc         1
    irdwfk         1
      iscf        -2
       kpt    1.00000000E+00  1.00000000E+00  1.00000000E+00
              1.00000000E+00  2.00000000E+00  2.00000000E+00
    kptnrm    4.00000000E+00
P    mkmem         2
     natom         2
     nband         8
     ngfft        16      16      16
      nkpt         2
     nline         3
     nstep        12
      nsym         1
    ntypat         1
    occopt         0
     rprim    0.0000000000E+00  5.0000000000E-01  5.0000000000E-01
              5.0000000000E-01  0.0000000000E+00  5.0000000000E-01
              5.0000000000E-01  5.0000000000E-01  0.0000000000E+00
    tolwfr    1.00000000E-12
     typat    1  1
    xangst    0.0000000000E+00  0.0000000000E+00  0.0000000000E+00
              1.3577509753E+00  1.3577509753E+00  1.3577509753E+00
     xcart    0.0000000000E+00  0.0000000000E+00  0.0000000000E+00
              2.5657775000E+00  2.5657775000E+00  2.5657775000E+00
      xred    0.0000000000E+00  0.0000000000E+00  0.0000000000E+00
              2.5000000000E-01  2.5000000000E-01  2.5000000000E-01
     znucl     14.00000

================================================================================

- Total cpu        time (s,m,h):          1.0        0.02      0.000
- Total wall clock time (s,m,h):          1.0        0.02      0.000

- For major independent code sections, cpu and wall times (sec),
- as well as % of the total time and number of calls 

- routine                 cpu     %       wall     %      number of calls 
-                                                          (-1=no count)
- timing timab           0.502  49.2      0.501  49.2             12
- pspini                 0.226  22.2      0.226  22.2              1
- invars2                0.102  10.0      0.102  10.0              1
- fourwf(pot)            0.061   6.0      0.052   5.1            305
- abinit(2)              0.030   2.9      0.030   2.9              1
- projbd                 0.005   0.5      0.006   0.6            306
- vtowfk(ssdiag)         0.005   0.5      0.011   1.1             -1
- nonlop(apply)          0.004   0.4      0.009   0.9            305
- 62   others            0.014   1.4      0.010   1.0

- subtotal               0.949  93.0      0.947  92.9

================================================================================

 Calculation completed.
.Delivered   11 WARNINGs and   1 COMMENTs to log file.
+Overall time at end (sec) : cpu=          1.0  wall=          1.0
