
.Version 5.6.3  of ABINIT 
.(sequential version, prepared for a x86_64_linux_gcc4.3 computer) 

.Copyright (C) 1998-2008 ABINIT group . 
 ABINIT comes with ABSOLUTELY NO WARRANTY.
 It is free software, and you are welcome to redistribute it
 under certain conditions (GNU General Public License,
 see ~abinit/COPYING or http://www.gnu.org/copyleft/gpl.txt).

 ABINIT is a project of the Universite Catholique de Louvain,
 Corning Inc. and other collaborators, see ~abinit/doc/developers/contributors.txt .
 Please read ~abinit/doc/users/acknowledgments.html for suggested
 acknowledgments of the ABINIT effort.
 For more information, see http://www.abinit.org .

.Starting date : Thu  6 Nov 2008.
  
- input  file    -> /home/gonze/ABINIT/ABINITv5.6.3/test_gcc43/5.6.3-private/tests/fast/Input/t12.in
- output file    -> t12.out
- root for input  files -> t12i
- root for output files -> t12o


 Symmetries : the space group has not been recognized
================================================================================
 Values of the parameters that define the memory need of the present run
   intxc =         1  ionmov =         0    iscf =        -2 xclevel =         1
  lmnmax =         2   lnmax =         2   mband =         8  mffmem =         0
P  mgfft =        16   mkmem =         0 mpssoang=         3     mpw =        95
  mqgrid =      3001   natom =         2    nfft =      4096    nkpt =         3
  nloalg =         4  nspden =         1 nspinor =         1  nsppol =         1
    nsym =         1  n1xccc =      2501  ntypat =         1  occopt =         0
================================================================================
P This job should need less than                       1.133 Mbytes of memory.
  Rough estimation (10% accuracy) of disk space for files :
  WF disk file :      0.037 Mbytes ; DEN or POT disk file :      0.033 Mbytes.
  mkmem==0 => use of 2 WF temporary disk files
================================================================================

 -outvars: echo values of preprocessed input variables --------
     acell    1.0263110000E+01  1.0263110000E+01  1.0263110000E+01 Bohr
       amu    2.80855000E+01
      ecut    5.80000000E+00 Hartree
    enunit         2
     intxc         1
    irdwfk         1
      iscf        -2
    istwfk      2    8    9
       kpt    0.00000000E+00  0.00000000E+00  0.00000000E+00
              0.00000000E+00  1.00000000E+00  1.00000000E+00
              1.00000000E+00  1.00000000E+00  1.00000000E+00
    kptnrm    2.00000000E+00
    mffmem         0
P    mkmem         0
     natom         2
     nband         8
     ngfft        16      16      16
      nkpt         3
     nstep        20
      nsym         1
    ntypat         1
    occopt         0
     rprim    0.0000000000E+00  5.0000000000E-01  5.0000000000E-01
              5.0000000000E-01  0.0000000000E+00  5.0000000000E-01
              5.0000000000E-01  5.0000000000E-01  0.0000000000E+00
    tolwfr    1.00000000E-12
     typat    1  1
    xangst    0.0000000000E+00  0.0000000000E+00  0.0000000000E+00
              1.3577509753E+00  1.3577509753E+00  1.3577509753E+00
     xcart    0.0000000000E+00  0.0000000000E+00  0.0000000000E+00
              2.5657775000E+00  2.5657775000E+00  2.5657775000E+00
      xred    0.0000000000E+00  0.0000000000E+00  0.0000000000E+00
              2.5000000000E-01  2.5000000000E-01  2.5000000000E-01
     znucl     14.00000

================================================================================

 chkinp: Checking input parameters for consistency.

================================================================================
== DATASET  1 ==================================================================

 Real(R)+Recip(G) space primitive vectors, cartesian coordinates (Bohr,Bohr^-1):
 R(1)=  0.0000000  5.1315550  5.1315550  G(1)= -0.0974364  0.0974364  0.0974364
 R(2)=  5.1315550  0.0000000  5.1315550  G(2)=  0.0974364 -0.0974364  0.0974364
 R(3)=  5.1315550  5.1315550  0.0000000  G(3)=  0.0974364  0.0974364 -0.0974364
 Unit cell volume ucvol=  2.7025701E+02 bohr^3
 Angles (23,13,12)=  6.00000000E+01  6.00000000E+01  6.00000000E+01 degrees

 getcut: wavevector=  0.0000  0.0000  0.0000  ngfft=  16  16  16
         ecut(hartree)=      5.800   => boxcut(ratio)=   2.03365

--- Pseudopotential description ------------------------------------------------
- pspini: atom type   1  psp file is /home/gonze/ABINIT/ABINITv5.6.3/test_gcc43/5.6.3-private/tests/Psps_for_tests/14si.pspnc
- pspatm: opening atomic psp file    /home/gonze/ABINIT/ABINITv5.6.3/test_gcc43/5.6.3-private/tests/Psps_for_tests/14si.pspnc
  Troullier-Martins psp for element  Si        Thu Oct 27 17:31:21 EDT 1994
  14.00000   4.00000    940714                znucl, zion, pspdat
    1    1    2    2      2001   0.00000      pspcod,pspxc,lmax,lloc,mmax,r2well
    0   5.907  14.692    1   2.0872718        l,e99.0,e99.9,nproj,rcpsp
   0.00000000   0.00000000   0.00000000   0.00000000     rms, ekb1, ekb2, epsatm
    1   2.617   4.181    1   2.0872718        l,e99.0,e99.9,nproj,rcpsp
   0.00000000   0.00000000   0.00000000   0.00000000     rms, ekb1, ekb2, epsatm
    2   0.000   0.000    0   2.0872718        l,e99.0,e99.9,nproj,rcpsp
   0.00000000   0.00000000   0.00000000   0.00000000     rms, ekb1, ekb2, epsatm
    1.80626423934776    0.22824404341771    1.17378968127746   rchrg,fchrg,qchrg
 pspatm: epsatm=    1.43386982
         --- l  ekb(1:nproj) -->
             0    3.287949
             1    1.849886
 pspatm: atomic psp has been read  and splines computed

--------------------------------------------------------------------------------

-inwffil : will read wavefunctions from disk file t12i_WFK
- newkpt: read input wf with ikpt,npw=   1      85, make ikpt,npw=   1      85
- newkpt: read input wf with ikpt,npw=   2      95, make ikpt,npw=   2      95
- newkpt: read input wf with ikpt,npw=   5      90, make ikpt,npw=   3      90


================================================================================
 prteigrs : about to open file t12o_EIG
 Non-SCF case, kpt    1 (  0.00000  0.00000  0.00000), residuals and eigenvalues=
  1.32E-13  2.40E-13  2.24E-13  2.32E-13  1.20E-13  1.48E-13  1.23E-13  6.81E-13
 -2.2607E-01  2.1504E-01  2.1504E-01  2.1504E-01  3.0745E-01  3.0745E-01
  3.0745E-01  3.2917E-01
 Non-SCF case, kpt    2 (  0.00000  0.50000  0.50000), residuals and eigenvalues=
  3.83E-13  1.11E-13  4.78E-14  5.51E-14  4.42E-13  5.67E-13  7.46E-13  1.70E-13
 -7.3665E-02 -7.3665E-02  1.0775E-01  1.0775E-01  2.3725E-01  2.3725E-01
  5.7958E-01  5.7958E-01
 Non-SCF case, kpt    3 (  0.50000  0.50000  0.50000), residuals and eigenvalues=
  7.87E-14  1.41E-13  8.18E-13  8.30E-13  9.50E-14  1.51E-13  1.51E-13  6.82E-14
 -1.3943E-01 -4.4132E-02  1.6952E-01  1.6952E-01  2.6640E-01  3.3740E-01
  3.3740E-01  4.8989E-01
================================================================================

 ----iterations are completed or convergence reached----

 Mean square residual over all n,k,spin=   2.8146E-13; max=  8.2978E-13
   0.0000  0.0000  0.0000    1  6.81016E-13 kpt; spin; max resid(k); each band:
 1.32E-13 2.40E-13 2.24E-13 2.32E-13 1.20E-13 1.48E-13 1.23E-13 6.81E-13
   0.0000  0.5000  0.5000    1  7.46472E-13 kpt; spin; max resid(k); each band:
 3.83E-13 1.11E-13 4.78E-14 5.51E-14 4.42E-13 5.67E-13 7.46E-13 1.70E-13
   0.5000  0.5000  0.5000    1  8.29775E-13 kpt; spin; max resid(k); each band:
 7.87E-14 1.41E-13 8.18E-13 8.30E-13 9.50E-14 1.51E-13 1.51E-13 6.82E-14
 reduced coordinates (array xred) for    2 atoms
       0.000000000000      0.000000000000      0.000000000000
       0.250000000000      0.250000000000      0.250000000000

 cartesian coordinates (angstrom) at end:
    1      0.00000000000000     0.00000000000000     0.00000000000000
    2      1.35775097531303     1.35775097531303     1.35775097531303
 length scales= 10.263110000000 10.263110000000 10.263110000000 bohr
              =  5.431003901252  5.431003901252  5.431003901252 angstroms
 prteigrs : about to open file t12o_EIG
 Eigenvalues (hartree) for nkpt=   3  k points:
 kpt#   1, nband=  8, wtk=  1.00000, kpt=  0.0000  0.0000  0.0000 (reduced coord)
  -0.22607   0.21504   0.21504   0.21504   0.30745   0.30745   0.30745   0.32917
 kpt#   2, nband=  8, wtk=  1.00000, kpt=  0.0000  0.5000  0.5000 (reduced coord)
  -0.07366  -0.07366   0.10775   0.10775   0.23725   0.23725   0.57958   0.57958
 kpt#   3, nband=  8, wtk=  1.00000, kpt=  0.5000  0.5000  0.5000 (reduced coord)
  -0.13943  -0.04413   0.16952   0.16952   0.26640   0.33740   0.33740   0.48989
 Eigenvalues (   eV  ) for nkpt=   3  k points:
 kpt#   1, nband=  8, wtk=  1.00000, kpt=  0.0000  0.0000  0.0000 (reduced coord)
  -6.15161   5.85149   5.85149   5.85149   8.36609   8.36609   8.36609   8.95717
 kpt#   2, nband=  8, wtk=  1.00000, kpt=  0.0000  0.5000  0.5000 (reduced coord)
  -2.00453  -2.00453   2.93209   2.93209   6.45594   6.45594  15.77109  15.77109
 kpt#   3, nband=  8, wtk=  1.00000, kpt=  0.5000  0.5000  0.5000 (reduced coord)
  -3.79408  -1.20089   4.61289   4.61289   7.24924   9.18125   9.18125  13.33049
 Total charge density [el/Bohr^3]
,     Maximum=    8.6611E-02  at reduced coord.    0.1250    0.1250    0.6250
,Next maximum=    8.6611E-02  at reduced coord.    0.1250    0.6250    0.1250
,     Minimum=    3.1215E-03  at reduced coord.    0.5000    0.5000    0.5000
,Next minimum=    3.1215E-03  at reduced coord.    0.7500    0.7500    0.7500

== END DATASET(S) ==============================================================
================================================================================
  
 -outvars: echo values of variables after computation  --------
     acell    1.0263110000E+01  1.0263110000E+01  1.0263110000E+01 Bohr
       amu    2.80855000E+01
      ecut    5.80000000E+00 Hartree
    enunit         2
     intxc         1
    irdwfk         1
      iscf        -2
    istwfk      2    8    9
       kpt    0.00000000E+00  0.00000000E+00  0.00000000E+00
              0.00000000E+00  1.00000000E+00  1.00000000E+00
              1.00000000E+00  1.00000000E+00  1.00000000E+00
    kptnrm    2.00000000E+00
    mffmem         0
P    mkmem         0
     natom         2
     nband         8
     ngfft        16      16      16
      nkpt         3
     nstep        20
      nsym         1
    ntypat         1
    occopt         0
     rprim    0.0000000000E+00  5.0000000000E-01  5.0000000000E-01
              5.0000000000E-01  0.0000000000E+00  5.0000000000E-01
              5.0000000000E-01  5.0000000000E-01  0.0000000000E+00
    tolwfr    1.00000000E-12
     typat    1  1
    xangst    0.0000000000E+00  0.0000000000E+00  0.0000000000E+00
              1.3577509753E+00  1.3577509753E+00  1.3577509753E+00
     xcart    0.0000000000E+00  0.0000000000E+00  0.0000000000E+00
              2.5657775000E+00  2.5657775000E+00  2.5657775000E+00
      xred    0.0000000000E+00  0.0000000000E+00  0.0000000000E+00
              2.5000000000E-01  2.5000000000E-01  2.5000000000E-01
     znucl     14.00000

================================================================================

- Total cpu        time (s,m,h):          1.0        0.02      0.000
- Total wall clock time (s,m,h):          1.0        0.02      0.000

- For major independent code sections, cpu and wall times (sec),
- as well as % of the total time and number of calls 

- routine                 cpu     %       wall     %      number of calls 
-                                                          (-1=no count)
- timing timab           0.505  48.8      0.504  48.8             12
- pspini                 0.223  21.6      0.223  21.6              1
- invars2                0.102   9.9      0.103  10.0              1
- fourwf(pot)            0.071   6.9      0.063   6.1            496
- abinit(2)              0.029   2.8      0.030   2.9              1
- getghc-other           0.007   0.7      0.004   0.4             -1
- vtowfk(ssdiag)         0.007   0.7      0.007   0.7             -1
- nonlop(apply)          0.004   0.4      0.007   0.7            496
- 62   others            0.016   1.5      0.016   1.5

- subtotal               0.964  93.2      0.957  92.6

================================================================================

 Calculation completed.
.Delivered    3 WARNINGs and   1 COMMENTs to log file.
+Overall time at end (sec) : cpu=          1.0  wall=          1.0
