
.Version 5.6.3  of ABINIT 
.(sequential version, prepared for a x86_64_linux_gcc4.3 computer) 

.Copyright (C) 1998-2008 ABINIT group . 
 ABINIT comes with ABSOLUTELY NO WARRANTY.
 It is free software, and you are welcome to redistribute it
 under certain conditions (GNU General Public License,
 see ~abinit/COPYING or http://www.gnu.org/copyleft/gpl.txt).

 ABINIT is a project of the Universite Catholique de Louvain,
 Corning Inc. and other collaborators, see ~abinit/doc/developers/contributors.txt .
 Please read ~abinit/doc/users/acknowledgments.html for suggested
 acknowledgments of the ABINIT effort.
 For more information, see http://www.abinit.org .

.Starting date : Thu  6 Nov 2008.
  
- input  file    -> /home/gonze/ABINIT/ABINITv5.6.3/test_gcc43/5.6.3-private/tests/fast/Input/t14.in
- output file    -> t14.out
- root for input  files -> t13o
- root for output files -> t14o


 Symmetries : space group F-4 3 m (#216); Bravais cF (face-center cubic)
================================================================================
 Values of the parameters that define the memory need of the present run
   intxc =         0  ionmov =         0    iscf =         7 xclevel =         1
  lmnmax =         2   lnmax =         2   mband =         4  mffmem =         1
P  mgfft =        16   mkmem =         2 mpssoang=         3     mpw =       244
  mqgrid =      3001   natom =         2    nfft =      4096    nkpt =         2
  nloalg =         4  nspden =         1 nspinor =         1  nsppol =         1
    nsym =        24  n1xccc =      2501  ntypat =         1  occopt =         0
================================================================================
P This job should need less than                       1.793 Mbytes of memory.
  Rough estimation (10% accuracy) of disk space for files :
  WF disk file :      0.032 Mbytes ; DEN or POT disk file :      0.033 Mbytes.
================================================================================

 -outvars: echo values of preprocessed input variables --------
     acell    1.0263110000E+01  1.0263110000E+01  1.0263110000E+01 Bohr
       amu    2.80855000E+01
    diemac    1.20000000E+01
      ecut    7.00000000E+00 Hartree
    enunit         2
    irdwfk         1
       kpt    1.00000000E+00  1.00000000E+00  1.00000000E+00
              1.00000000E+00  2.00000000E+00  2.00000000E+00
    kptnrm    4.00000000E+00
P    mkmem         2
     natom         2
     nband         4
     ngfft        16      16      16
      nkpt         2
     nstep        20
      nsym        24
    ntypat         1
       occ    2.000000  2.000000  2.000000  2.000000
    occopt         0
     rprim    0.0000000000E+00  5.0000000000E-01  5.0000000000E-01
              5.0000000000E-01  0.0000000000E+00  5.0000000000E-01
              5.0000000000E-01  5.0000000000E-01  0.0000000000E+00
   spgroup       216
    symrel    1  0  0   0  1  0   0  0  1       0  1 -1   1  0 -1   0  0 -1
              0 -1  1   0 -1  0   1 -1  0      -1  0  0  -1  0  1  -1  1  0
              0  1  0   0  0  1   1  0  0       1  0 -1   0  0 -1   0  1 -1
              0 -1  0   1 -1  0   0 -1  1      -1  0  1  -1  1  0  -1  0  0
              0  0  1   1  0  0   0  1  0       0  0 -1   0  1 -1   1  0 -1
              1 -1  0   0 -1  1   0 -1  0      -1  1  0  -1  0  0  -1  0  1
              1  0 -1   0  1 -1   0  0 -1       0  1  0   1  0  0   0  0  1
             -1  0  1  -1  0  0  -1  1  0       0 -1  0   0 -1  1   1 -1  0
             -1  1  0  -1  0  1  -1  0  0       1 -1  0   0 -1  0   0 -1  1
              0  0 -1   1  0 -1   0  1 -1       0  0  1   0  1  0   1  0  0
              0 -1  1   1 -1  0   0 -1  0      -1  0  0  -1  1  0  -1  0  1
              1  0  0   0  0  1   0  1  0       0  1 -1   0  0 -1   1  0 -1
    tolwfr    1.00000000E-14
     typat    1  1
       wtk      0.25000    0.75000
    xangst    0.0000000000E+00  0.0000000000E+00  0.0000000000E+00
              1.3577509753E+00  1.3577509753E+00  1.3577509753E+00
     xcart    0.0000000000E+00  0.0000000000E+00  0.0000000000E+00
              2.5657775000E+00  2.5657775000E+00  2.5657775000E+00
      xred    0.0000000000E+00  0.0000000000E+00  0.0000000000E+00
              2.5000000000E-01  2.5000000000E-01  2.5000000000E-01
     znucl     14.00000

================================================================================

 chkinp: Checking input parameters for consistency.

================================================================================
== DATASET  1 ==================================================================

 Real(R)+Recip(G) space primitive vectors, cartesian coordinates (Bohr,Bohr^-1):
 R(1)=  0.0000000  5.1315550  5.1315550  G(1)= -0.0974364  0.0974364  0.0974364
 R(2)=  5.1315550  0.0000000  5.1315550  G(2)=  0.0974364 -0.0974364  0.0974364
 R(3)=  5.1315550  5.1315550  0.0000000  G(3)=  0.0974364  0.0974364 -0.0974364
 Unit cell volume ucvol=  2.7025701E+02 bohr^3
 Angles (23,13,12)=  6.00000000E+01  6.00000000E+01  6.00000000E+01 degrees

 getcut: wavevector=  0.0000  0.0000  0.0000  ngfft=  16  16  16
         ecut(hartree)=      7.000   => boxcut(ratio)=   1.85115

--- Pseudopotential description ------------------------------------------------
- pspini: atom type   1  psp file is /home/gonze/ABINIT/ABINITv5.6.3/test_gcc43/5.6.3-private/tests/Psps_for_tests/14si.pspnc
- pspatm: opening atomic psp file    /home/gonze/ABINIT/ABINITv5.6.3/test_gcc43/5.6.3-private/tests/Psps_for_tests/14si.pspnc
  Troullier-Martins psp for element  Si        Thu Oct 27 17:31:21 EDT 1994
  14.00000   4.00000    940714                znucl, zion, pspdat
    1    1    2    2      2001   0.00000      pspcod,pspxc,lmax,lloc,mmax,r2well
    0   5.907  14.692    1   2.0872718        l,e99.0,e99.9,nproj,rcpsp
   0.00000000   0.00000000   0.00000000   0.00000000     rms, ekb1, ekb2, epsatm
    1   2.617   4.181    1   2.0872718        l,e99.0,e99.9,nproj,rcpsp
   0.00000000   0.00000000   0.00000000   0.00000000     rms, ekb1, ekb2, epsatm
    2   0.000   0.000    0   2.0872718        l,e99.0,e99.9,nproj,rcpsp
   0.00000000   0.00000000   0.00000000   0.00000000     rms, ekb1, ekb2, epsatm
    1.80626423934776    0.22824404341771    1.17378968127746   rchrg,fchrg,qchrg
 pspatm: epsatm=    1.43386982
         --- l  ekb(1:nproj) -->
             0    3.287949
             1    1.849886
 pspatm: atomic psp has been read  and splines computed

   2.29419171E+01                                ecore*ucvol(ha*bohr**3)
--------------------------------------------------------------------------------

-inwffil : will read wavefunctions from disk file t13o_WFK
- newkpt: read input wf with ikpt,npw=   1     244, make ikpt,npw=   1     244
- newkpt: read input wf with ikpt,npw=   2     238, make ikpt,npw=   2     238

 setup2: Arith. and geom. avg. npw (full set) are     239.500     239.486

================================================================================

     iter   Etot(hartree)      deltaE(h)  residm     vres2    diffor    maxfor
 ETOT  1  -8.8642478170332    -8.864E+00 2.354E-09 1.341E-03 0.000E+00 0.000E+00
 ETOT  2  -8.8642485669844    -7.500E-07 5.833E-14 1.528E-05 7.379E-30 7.379E-30
 ETOT  3  -8.8642485799626    -1.298E-08 3.032E-11 2.886E-07 6.764E-30 6.149E-31
 ETOT  4  -8.8642485801909    -2.283E-10 9.508E-13 3.393E-09 6.149E-31 0.000E+00
 ETOT  5  -8.8642485801929    -1.984E-12 1.008E-14 3.750E-12 0.000E+00 0.000E+00
 ETOT  6  -8.8642485801929     0.000E+00 5.722E-15 2.961E-14 0.000E+00 0.000E+00

 At SCF step    6   max residual=  5.72E-15 < tolwfr=  1.00E-14 =>converged.

 Cartesian components of stress tensor (hartree/bohr^3)
  sigma(1 1)=  7.23189332E-05  sigma(3 2)=  0.00000000E+00
  sigma(2 2)=  7.23189332E-05  sigma(3 1)=  0.00000000E+00
  sigma(3 3)=  7.23189332E-05  sigma(2 1)=  0.00000000E+00

================================================================================

 ----iterations are completed or convergence reached----

 Mean square residual over all n,k,spin=   2.3523E-15; max=  5.7219E-15
   0.2500  0.2500  0.2500    1  3.39851E-15 kpt; spin; max resid(k); each band:
 7.71E-16 3.40E-15 2.81E-15 2.81E-15
   0.2500  0.5000  0.5000    1  5.72195E-15 kpt; spin; max resid(k); each band:
 2.05E-15 8.19E-16 4.29E-16 5.72E-15
 reduced coordinates (array xred) for    2 atoms
       0.000000000000      0.000000000000      0.000000000000
       0.250000000000      0.250000000000      0.250000000000
 rms dE/dt=  0.0000E+00; max dE/dt=  0.0000E+00; dE/dt below (all hartree)
    1       0.000000000000      0.000000000000      0.000000000000
    2       0.000000000000      0.000000000000      0.000000000000

 cartesian coordinates (angstrom) at end:
    1      0.00000000000000     0.00000000000000     0.00000000000000
    2      1.35775097531303     1.35775097531303     1.35775097531303

 cartesian forces (hartree/bohr) at end:
    1     -0.00000000000000    -0.00000000000000    -0.00000000000000
    2     -0.00000000000000    -0.00000000000000    -0.00000000000000
 frms,max,avg= 0.0000000E+00 0.0000000E+00   0.000E+00  0.000E+00  0.000E+00 h/b

 cartesian forces (eV/Angstrom) at end:
    1     -0.00000000000000    -0.00000000000000    -0.00000000000000
    2     -0.00000000000000    -0.00000000000000    -0.00000000000000
 frms,max,avg= 0.0000000E+00 0.0000000E+00   0.000E+00  0.000E+00  0.000E+00 e/A
 length scales= 10.263110000000 10.263110000000 10.263110000000 bohr
              =  5.431003901252  5.431003901252  5.431003901252 angstroms
 prteigrs : about to open file t14o_EIG
 Fermi (or HOMO) energy (hartree) =   0.18549   Average Vxc (hartree)=  -0.35219
 Eigenvalues (hartree) for nkpt=   2  k points:
 kpt#   1, nband=  4, wtk=  0.25000, kpt=  0.2500  0.2500  0.2500 (reduced coord)
  -0.19775   0.06807   0.18549   0.18549
 kpt#   2, nband=  4, wtk=  0.75000, kpt=  0.2500  0.5000  0.5000 (reduced coord)
  -0.12687  -0.02191   0.08200   0.13183
 Fermi (or HOMO) energy (eV) =   5.04751   Average Vxc (eV)=  -9.58358
 Eigenvalues (   eV  ) for nkpt=   2  k points:
 kpt#   1, nband=  4, wtk=  0.25000, kpt=  0.2500  0.2500  0.2500 (reduced coord)
  -5.38107   1.85223   5.04751   5.04751
 kpt#   2, nband=  4, wtk=  0.75000, kpt=  0.2500  0.5000  0.5000 (reduced coord)
  -3.45222  -0.59619   2.23141   3.58729
 Total charge density [el/Bohr^3]
,     Maximum=    8.5647E-02  at reduced coord.    0.1250    0.1250    0.6250
,Next maximum=    8.5647E-02  at reduced coord.    0.1250    0.6250    0.1250
,     Minimum=    3.1306E-03  at reduced coord.    0.5000    0.5000    0.5000
,Next minimum=    3.1306E-03  at reduced coord.    0.7500    0.7500    0.7500

--------------------------------------------------------------------------------
 Components of total free energy (in Hartree) :

    Kinetic energy  =  3.02331903402369E+00
    Hartree energy  =  5.52739322189116E-01
    XC energy       = -3.53436000506571E+00
    Ewald energy    = -8.39791921808003E+00
    PspCore energy  =  8.48892598830441E-02
    Loc. psp. energy= -2.47719028234728E+00
    NL   psp  energy=  1.88427330920431E+00
    >>>>>>>>> Etotal= -8.86424858019287E+00

 Other information on the energy :
    Total energy(eV)= -2.41208470746088E+02 ; Band energy (Ha)=   2.1823655845E-01
--------------------------------------------------------------------------------

 Cartesian components of stress tensor (hartree/bohr^3)
  sigma(1 1)=  7.23189332E-05  sigma(3 2)=  0.00000000E+00
  sigma(2 2)=  7.23189332E-05  sigma(3 1)=  0.00000000E+00
  sigma(3 3)=  7.23189332E-05  sigma(2 1)=  0.00000000E+00

-Cartesian components of stress tensor (GPa)         [Pressure= -2.1277E+00 GPa]
- sigma(1 1)=  2.12769611E+00  sigma(3 2)=  0.00000000E+00
- sigma(2 2)=  2.12769611E+00  sigma(3 1)=  0.00000000E+00
- sigma(3 3)=  2.12769611E+00  sigma(2 1)=  0.00000000E+00

== END DATASET(S) ==============================================================
================================================================================
  
 -outvars: echo values of variables after computation  --------
     acell    1.0263110000E+01  1.0263110000E+01  1.0263110000E+01 Bohr
       amu    2.80855000E+01
    diemac    1.20000000E+01
      ecut    7.00000000E+00 Hartree
    enunit         2
    etotal   -8.8642485802E+00
     fcart   -0.0000000000E+00 -0.0000000000E+00 -0.0000000000E+00
             -0.0000000000E+00 -0.0000000000E+00 -0.0000000000E+00
    irdwfk         1
       kpt    1.00000000E+00  1.00000000E+00  1.00000000E+00
              1.00000000E+00  2.00000000E+00  2.00000000E+00
    kptnrm    4.00000000E+00
P    mkmem         2
     natom         2
     nband         4
     ngfft        16      16      16
      nkpt         2
     nstep        20
      nsym        24
    ntypat         1
       occ    2.000000  2.000000  2.000000  2.000000
    occopt         0
     rprim    0.0000000000E+00  5.0000000000E-01  5.0000000000E-01
              5.0000000000E-01  0.0000000000E+00  5.0000000000E-01
              5.0000000000E-01  5.0000000000E-01  0.0000000000E+00
   spgroup       216
    strten    7.2318933175E-05  7.2318933175E-05  7.2318933175E-05
              0.0000000000E+00  0.0000000000E+00  0.0000000000E+00
    symrel    1  0  0   0  1  0   0  0  1       0  1 -1   1  0 -1   0  0 -1
              0 -1  1   0 -1  0   1 -1  0      -1  0  0  -1  0  1  -1  1  0
              0  1  0   0  0  1   1  0  0       1  0 -1   0  0 -1   0  1 -1
              0 -1  0   1 -1  0   0 -1  1      -1  0  1  -1  1  0  -1  0  0
              0  0  1   1  0  0   0  1  0       0  0 -1   0  1 -1   1  0 -1
              1 -1  0   0 -1  1   0 -1  0      -1  1  0  -1  0  0  -1  0  1
              1  0 -1   0  1 -1   0  0 -1       0  1  0   1  0  0   0  0  1
             -1  0  1  -1  0  0  -1  1  0       0 -1  0   0 -1  1   1 -1  0
             -1  1  0  -1  0  1  -1  0  0       1 -1  0   0 -1  0   0 -1  1
              0  0 -1   1  0 -1   0  1 -1       0  0  1   0  1  0   1  0  0
              0 -1  1   1 -1  0   0 -1  0      -1  0  0  -1  1  0  -1  0  1
              1  0  0   0  0  1   0  1  0       0  1 -1   0  0 -1   1  0 -1
    tolwfr    1.00000000E-14
     typat    1  1
       wtk      0.25000    0.75000
    xangst    0.0000000000E+00  0.0000000000E+00  0.0000000000E+00
              1.3577509753E+00  1.3577509753E+00  1.3577509753E+00
     xcart    0.0000000000E+00  0.0000000000E+00  0.0000000000E+00
              2.5657775000E+00  2.5657775000E+00  2.5657775000E+00
      xred    0.0000000000E+00  0.0000000000E+00  0.0000000000E+00
              2.5000000000E-01  2.5000000000E-01  2.5000000000E-01
     znucl     14.00000

================================================================================

- Total cpu        time (s,m,h):          1.1        0.02      0.000
- Total wall clock time (s,m,h):          1.1        0.02      0.000

- For major independent code sections, cpu and wall times (sec),
- as well as % of the total time and number of calls 

- routine                 cpu     %       wall     %      number of calls 
-                                                          (-1=no count)
- timing timab           0.345  32.3      0.346  32.4             11
- pspini                 0.222  20.8      0.222  20.8              1
- invars2                0.118  11.1      0.117  11.0              1
- fourwf(pot)            0.050   4.7      0.047   4.4            255
- abinit(2)              0.034   3.2      0.034   3.2              1
- forces                 0.018   1.7      0.018   1.7              6
- fourwf(den)            0.009   0.8      0.008   0.7             56
- mkcore                 0.009   0.8      0.010   0.9              8
- symrhg(no FFT)         0.006   0.6      0.007   0.7              7
- nonlop(apply)          0.004   0.4      0.009   0.8            255
- 60   others            0.032   3.0      0.042   3.9

- subtotal               0.847  79.4      0.860  80.5

================================================================================

 Calculation completed.
.Delivered    8 WARNINGs and   0 COMMENTs to log file.
+Overall time at end (sec) : cpu=          1.1  wall=          1.1
