
.Version 5.6.3  of ABINIT 
.(sequential version, prepared for a x86_64_linux_gcc4.3 computer) 

.Copyright (C) 1998-2008 ABINIT group . 
 ABINIT comes with ABSOLUTELY NO WARRANTY.
 It is free software, and you are welcome to redistribute it
 under certain conditions (GNU General Public License,
 see ~abinit/COPYING or http://www.gnu.org/copyleft/gpl.txt).

 ABINIT is a project of the Universite Catholique de Louvain,
 Corning Inc. and other collaborators, see ~abinit/doc/developers/contributors.txt .
 Please read ~abinit/doc/users/acknowledgments.html for suggested
 acknowledgments of the ABINIT effort.
 For more information, see http://www.abinit.org .

.Starting date : Thu  6 Nov 2008.
  
- input  file    -> /home/gonze/ABINIT/ABINITv5.6.3/test_gcc43/5.6.3-private/tests/fast/Input/t16.in
- output file    -> t16.out
- root for input  files -> t15o
- root for output files -> t16o


 Symmetries : space group F-4 3 m (#216); Bravais cF (face-center cubic)
================================================================================
 Values of the parameters that define the memory need of the present run
   intxc =         1  ionmov =         0    iscf =         7 xclevel =         1
  lmnmax =         2   lnmax =         2   mband =         4  mffmem =         1
P  mgfft =        16   mkmem =         2 mpssoang=         3     mpw =       186
  mqgrid =      3001   natom =         2    nfft =      4096    nkpt =         2
  nloalg =         4  nspden =         1 nspinor =         1  nsppol =         1
    nsym =        24  n1xccc =      2501  ntypat =         1  occopt =         0
================================================================================
P This job should need less than                       1.766 Mbytes of memory.
  Rough estimation (10% accuracy) of disk space for files :
  WF disk file :      0.025 Mbytes ; DEN or POT disk file :      0.033 Mbytes.
================================================================================

 -outvars: echo values of preprocessed input variables --------
     acell    1.0366000000E+01  1.0366000000E+01  1.0366000000E+01 Bohr
       amu    2.80855000E+01
    diemac    1.20000000E+01
      ecut    5.80000000E+00 Hartree
    enunit         2
     intxc         1
    irdwfk         1
       kpt    1.00000000E+00  1.00000000E+00  1.00000000E+00
              1.00000000E+00  2.00000000E+00  2.00000000E+00
    kptnrm    4.00000000E+00
P    mkmem         2
     natom         2
     nband         4
     ngfft        16      16      16
      nkpt         2
     nstep        20
      nsym        24
    ntypat         1
       occ    2.000000  2.000000  2.000000  2.000000
    occopt         0
     rprim    0.0000000000E+00  5.0000000000E-01  5.0000000000E-01
              5.0000000000E-01  0.0000000000E+00  5.0000000000E-01
              5.0000000000E-01  5.0000000000E-01  0.0000000000E+00
   spgroup       216
    symrel    1  0  0   0  1  0   0  0  1       0  1 -1   1  0 -1   0  0 -1
              0 -1  1   0 -1  0   1 -1  0      -1  0  0  -1  0  1  -1  1  0
              0  1  0   0  0  1   1  0  0       1  0 -1   0  0 -1   0  1 -1
              0 -1  0   1 -1  0   0 -1  1      -1  0  1  -1  1  0  -1  0  0
              0  0  1   1  0  0   0  1  0       0  0 -1   0  1 -1   1  0 -1
              1 -1  0   0 -1  1   0 -1  0      -1  1  0  -1  0  0  -1  0  1
              1  0 -1   0  1 -1   0  0 -1       0  1  0   1  0  0   0  0  1
             -1  0  1  -1  0  0  -1  1  0       0 -1  0   0 -1  1   1 -1  0
             -1  1  0  -1  0  1  -1  0  0       1 -1  0   0 -1  0   0 -1  1
              0  0 -1   1  0 -1   0  1 -1       0  0  1   0  1  0   1  0  0
              0 -1  1   1 -1  0   0 -1  0      -1  0  0  -1  1  0  -1  0  1
              1  0  0   0  0  1   0  1  0       0  1 -1   0  0 -1   1  0 -1
    tolwfr    1.00000000E-14
     typat    1  1
       wtk      0.25000    0.75000
    xangst    0.0000000000E+00  0.0000000000E+00  0.0000000000E+00
              1.3713627361E+00  1.3713627361E+00  1.3713627361E+00
     xcart    0.0000000000E+00  0.0000000000E+00  0.0000000000E+00
              2.5915000000E+00  2.5915000000E+00  2.5915000000E+00
      xred    0.0000000000E+00  0.0000000000E+00  0.0000000000E+00
              2.5000000000E-01  2.5000000000E-01  2.5000000000E-01
     znucl     14.00000

================================================================================

 chkinp: Checking input parameters for consistency.

================================================================================
== DATASET  1 ==================================================================

 Real(R)+Recip(G) space primitive vectors, cartesian coordinates (Bohr,Bohr^-1):
 R(1)=  0.0000000  5.1830000  5.1830000  G(1)= -0.0964692  0.0964692  0.0964692
 R(2)=  5.1830000  0.0000000  5.1830000  G(2)=  0.0964692 -0.0964692  0.0964692
 R(3)=  5.1830000  5.1830000  0.0000000  G(3)=  0.0964692  0.0964692 -0.0964692
 Unit cell volume ucvol=  2.7846693E+02 bohr^3
 Angles (23,13,12)=  6.00000000E+01  6.00000000E+01  6.00000000E+01 degrees

 getcut: wavevector=  0.0000  0.0000  0.0000  ngfft=  16  16  16
         ecut(hartree)=      5.800   => boxcut(ratio)=   2.01347

--- Pseudopotential description ------------------------------------------------
- pspini: atom type   1  psp file is /home/gonze/ABINIT/ABINITv5.6.3/test_gcc43/5.6.3-private/tests/Psps_for_tests/14si.pspnc
- pspatm: opening atomic psp file    /home/gonze/ABINIT/ABINITv5.6.3/test_gcc43/5.6.3-private/tests/Psps_for_tests/14si.pspnc
  Troullier-Martins psp for element  Si        Thu Oct 27 17:31:21 EDT 1994
  14.00000   4.00000    940714                znucl, zion, pspdat
    1    1    2    2      2001   0.00000      pspcod,pspxc,lmax,lloc,mmax,r2well
    0   5.907  14.692    1   2.0872718        l,e99.0,e99.9,nproj,rcpsp
   0.00000000   0.00000000   0.00000000   0.00000000     rms, ekb1, ekb2, epsatm
    1   2.617   4.181    1   2.0872718        l,e99.0,e99.9,nproj,rcpsp
   0.00000000   0.00000000   0.00000000   0.00000000     rms, ekb1, ekb2, epsatm
    2   0.000   0.000    0   2.0872718        l,e99.0,e99.9,nproj,rcpsp
   0.00000000   0.00000000   0.00000000   0.00000000     rms, ekb1, ekb2, epsatm
    1.80626423934776    0.22824404341771    1.17378968127746   rchrg,fchrg,qchrg
 pspatm: epsatm=    1.43386982
         --- l  ekb(1:nproj) -->
             0    3.287949
             1    1.849886
 pspatm: atomic psp has been read  and splines computed

   2.29419171E+01                                ecore*ucvol(ha*bohr**3)
--------------------------------------------------------------------------------

-inwffil : will read wavefunctions from disk file t15o_WFK
- newkpt: read input wf with ikpt,npw=   1     180, make ikpt,npw=   1     180
- newkpt: read input wf with ikpt,npw=   2     186, make ikpt,npw=   2     186

 setup2: Arith. and geom. avg. npw (full set) are     184.500     184.482

================================================================================

     iter   Etot(hartree)      deltaE(h)  residm     vres2    diffor    maxfor
 ETOT  1  -8.8571917783769    -8.857E+00 1.901E-10 5.981E-02 4.156E-28 4.156E-28
 ETOT  2  -8.8572753079805    -8.353E-05 9.800E-12 1.219E-03 4.156E-28 0.000E+00
 ETOT  3  -8.8572766163616    -1.308E-06 5.652E-09 2.334E-05 6.494E-30 6.494E-30
 ETOT  4  -8.8572766325160    -1.615E-08 9.079E-11 2.629E-08 6.088E-30 1.218E-30
 ETOT  5  -8.8572766325346    -1.864E-11 1.119E-14 8.783E-11 1.218E-30 0.000E+00
 ETOT  6  -8.8572766325347    -1.226E-13 9.866E-15 2.736E-13 5.073E-32 5.073E-32

 At SCF step    6   max residual=  9.87E-15 < tolwfr=  1.00E-14 =>converged.

 Cartesian components of stress tensor (hartree/bohr^3)
  sigma(1 1)=  2.00257474E-04  sigma(3 2)=  0.00000000E+00
  sigma(2 2)=  2.00257474E-04  sigma(3 1)=  0.00000000E+00
  sigma(3 3)=  2.00257474E-04  sigma(2 1)=  0.00000000E+00

================================================================================

 ----iterations are completed or convergence reached----

 Mean square residual over all n,k,spin=   2.7320E-15; max=  9.8665E-15
   0.2500  0.2500  0.2500    1  9.86650E-15 kpt; spin; max resid(k); each band:
 9.87E-15 6.87E-16 8.34E-16 8.34E-16
   0.2500  0.5000  0.5000    1  8.00700E-15 kpt; spin; max resid(k); each band:
 8.01E-15 7.07E-16 5.62E-16 3.60E-16
 reduced coordinates (array xred) for    2 atoms
       0.000000000000      0.000000000000      0.000000000000
       0.250000000000      0.250000000000      0.250000000000
 rms dE/dt=  4.2940E-31; max dE/dt=  0.0000E+00; dE/dt below (all hartree)
    1       0.000000000000      0.000000000000      0.000000000000
    2      -0.000000000000      0.000000000000      0.000000000000

 cartesian coordinates (angstrom) at end:
    1      0.00000000000000     0.00000000000000     0.00000000000000
    2      1.37136273606098     1.37136273606098     1.37136273606098

 cartesian forces (hartree/bohr) at end:
    1      0.00000000000000    -0.00000000000000    -0.00000000000000
    2     -0.00000000000000     0.00000000000000     0.00000000000000
 frms,max,avg= 5.0733867E-32 5.0733867E-32   0.000E+00  0.000E+00  0.000E+00 h/b

 cartesian forces (eV/Angstrom) at end:
    1      0.00000000000000    -0.00000000000000    -0.00000000000000
    2     -0.00000000000000     0.00000000000000     0.00000000000000
 frms,max,avg= 2.6088401E-30 2.6088401E-30   0.000E+00  0.000E+00  0.000E+00 e/A
 length scales= 10.366000000000 10.366000000000 10.366000000000 bohr
              =  5.485450944244  5.485450944244  5.485450944244 angstroms
 prteigrs : about to open file t16o_EIG
 Fermi (or HOMO) energy (hartree) =   0.17575   Average Vxc (hartree)=  -0.34815
 Eigenvalues (hartree) for nkpt=   2  k points:
 kpt#   1, nband=  4, wtk=  0.25000, kpt=  0.2500  0.2500  0.2500 (reduced coord)
  -0.20097   0.05987   0.17575   0.17575
 kpt#   2, nband=  4, wtk=  0.75000, kpt=  0.2500  0.5000  0.5000 (reduced coord)
  -0.13224  -0.02925   0.07472   0.12309
 Fermi (or HOMO) energy (eV) =   4.78230   Average Vxc (eV)=  -9.47357
 Eigenvalues (   eV  ) for nkpt=   2  k points:
 kpt#   1, nband=  4, wtk=  0.25000, kpt=  0.2500  0.2500  0.2500 (reduced coord)
  -5.46865   1.62920   4.78230   4.78230
 kpt#   2, nband=  4, wtk=  0.75000, kpt=  0.2500  0.5000  0.5000 (reduced coord)
  -3.59838  -0.79604   2.03312   3.34947
 Total charge density [el/Bohr^3]
,     Maximum=    8.4007E-02  at reduced coord.    0.1250    0.1250    0.6250
,Next maximum=    8.4007E-02  at reduced coord.    0.1250    0.6250    0.1250
,     Minimum=    2.9485E-03  at reduced coord.    0.5000    0.5000    0.5000
,Next minimum=    2.9485E-03  at reduced coord.    0.7500    0.7500    0.7500

--------------------------------------------------------------------------------
 Components of total free energy (in Hartree) :

    Kinetic energy  =  2.96944387512413E+00
    Hartree energy  =  5.63430577198798E-01
    XC energy       = -3.51632133484732E+00
    Ewald energy    = -8.31456383429187E+00
    PspCore energy  =  8.23865059718596E-02
    Loc. psp. energy= -2.55550912699956E+00
    NL   psp  energy=  1.91385670530920E+00
    >>>>>>>>> Etotal= -8.85727663253475E+00

 Other information on the energy :
    Total energy(eV)= -2.41018754402111E+02 ; Band energy (Ha)=   1.5966941698E-01
--------------------------------------------------------------------------------

 Cartesian components of stress tensor (hartree/bohr^3)
  sigma(1 1)=  2.00257474E-04  sigma(3 2)=  0.00000000E+00
  sigma(2 2)=  2.00257474E-04  sigma(3 1)=  0.00000000E+00
  sigma(3 3)=  2.00257474E-04  sigma(2 1)=  0.00000000E+00

-Cartesian components of stress tensor (GPa)         [Pressure= -5.8918E+00 GPa]
- sigma(1 1)=  5.89177731E+00  sigma(3 2)=  0.00000000E+00
- sigma(2 2)=  5.89177731E+00  sigma(3 1)=  0.00000000E+00
- sigma(3 3)=  5.89177731E+00  sigma(2 1)=  0.00000000E+00

== END DATASET(S) ==============================================================
================================================================================
  
 -outvars: echo values of variables after computation  --------
     acell    1.0366000000E+01  1.0366000000E+01  1.0366000000E+01 Bohr
       amu    2.80855000E+01
    diemac    1.20000000E+01
      ecut    5.80000000E+00 Hartree
    enunit         2
    etotal   -8.8572766325E+00
     fcart    5.0733867465E-32 -5.0733867465E-32 -5.0733867465E-32
             -5.0733867465E-32  5.0733867465E-32  5.0733867465E-32
     intxc         1
    irdwfk         1
       kpt    1.00000000E+00  1.00000000E+00  1.00000000E+00
              1.00000000E+00  2.00000000E+00  2.00000000E+00
    kptnrm    4.00000000E+00
P    mkmem         2
     natom         2
     nband         4
     ngfft        16      16      16
      nkpt         2
     nstep        20
      nsym        24
    ntypat         1
       occ    2.000000  2.000000  2.000000  2.000000
    occopt         0
     rprim    0.0000000000E+00  5.0000000000E-01  5.0000000000E-01
              5.0000000000E-01  0.0000000000E+00  5.0000000000E-01
              5.0000000000E-01  5.0000000000E-01  0.0000000000E+00
   spgroup       216
    strten    2.0025747429E-04  2.0025747429E-04  2.0025747429E-04
              0.0000000000E+00  0.0000000000E+00  0.0000000000E+00
    symrel    1  0  0   0  1  0   0  0  1       0  1 -1   1  0 -1   0  0 -1
              0 -1  1   0 -1  0   1 -1  0      -1  0  0  -1  0  1  -1  1  0
              0  1  0   0  0  1   1  0  0       1  0 -1   0  0 -1   0  1 -1
              0 -1  0   1 -1  0   0 -1  1      -1  0  1  -1  1  0  -1  0  0
              0  0  1   1  0  0   0  1  0       0  0 -1   0  1 -1   1  0 -1
              1 -1  0   0 -1  1   0 -1  0      -1  1  0  -1  0  0  -1  0  1
              1  0 -1   0  1 -1   0  0 -1       0  1  0   1  0  0   0  0  1
             -1  0  1  -1  0  0  -1  1  0       0 -1  0   0 -1  1   1 -1  0
             -1  1  0  -1  0  1  -1  0  0       1 -1  0   0 -1  0   0 -1  1
              0  0 -1   1  0 -1   0  1 -1       0  0  1   0  1  0   1  0  0
              0 -1  1   1 -1  0   0 -1  0      -1  0  0  -1  1  0  -1  0  1
              1  0  0   0  0  1   0  1  0       0  1 -1   0  0 -1   1  0 -1
    tolwfr    1.00000000E-14
     typat    1  1
       wtk      0.25000    0.75000
    xangst    0.0000000000E+00  0.0000000000E+00  0.0000000000E+00
              1.3713627361E+00  1.3713627361E+00  1.3713627361E+00
     xcart    0.0000000000E+00  0.0000000000E+00  0.0000000000E+00
              2.5915000000E+00  2.5915000000E+00  2.5915000000E+00
      xred    0.0000000000E+00  0.0000000000E+00  0.0000000000E+00
              2.5000000000E-01  2.5000000000E-01  2.5000000000E-01
     znucl     14.00000

================================================================================

- Total cpu        time (s,m,h):          1.2        0.02      0.000
- Total wall clock time (s,m,h):          1.2        0.02      0.000

- For major independent code sections, cpu and wall times (sec),
- as well as % of the total time and number of calls 

- routine                 cpu     %       wall     %      number of calls 
-                                                          (-1=no count)
- timing timab           0.494  40.4      0.494  40.4             12
- pspini                 0.224  18.3      0.224  18.3              1
- invars2                0.119   9.7      0.118   9.6              1
- fourwf(pot)            0.049   4.0      0.047   3.8            272
- abinit(2)              0.033   2.7      0.034   2.8              1
- forces                 0.018   1.5      0.016   1.3              6
- fourdp                 0.010   0.8      0.008   0.7             60
- mkcore                 0.010   0.8      0.008   0.7              8
- xc:pot/=fourdp         0.009   0.7      0.004   0.3              7
- projbd                 0.007   0.6      0.007   0.6            416
- nonlop(apply)          0.006   0.5      0.007   0.6            272
- vtowfk(ssdiag)         0.001   0.1      0.007   0.6             -1
- 58   others            0.033   2.7      0.033   2.7

- subtotal               1.013  82.8      1.007  82.3

================================================================================

 Calculation completed.
.Delivered    8 WARNINGs and   0 COMMENTs to log file.
+Overall time at end (sec) : cpu=          1.2  wall=          1.2
