
.Version 5.6.3  of ABINIT 
.(sequential version, prepared for a x86_64_linux_gcc4.3 computer) 

.Copyright (C) 1998-2008 ABINIT group . 
 ABINIT comes with ABSOLUTELY NO WARRANTY.
 It is free software, and you are welcome to redistribute it
 under certain conditions (GNU General Public License,
 see ~abinit/COPYING or http://www.gnu.org/copyleft/gpl.txt).

 ABINIT is a project of the Universite Catholique de Louvain,
 Corning Inc. and other collaborators, see ~abinit/doc/developers/contributors.txt .
 Please read ~abinit/doc/users/acknowledgments.html for suggested
 acknowledgments of the ABINIT effort.
 For more information, see http://www.abinit.org .

.Starting date : Thu  6 Nov 2008.
  
- input  file    -> /home/gonze/ABINIT/ABINITv5.6.3/test_gcc43/5.6.3-private/tests/fast/Input/t28.in
- output file    -> t28.out
- root for input  files -> t27o
- root for output files -> t28o


 Symmetries : space group P1 (#  1); Bravais aP (primitive triclinic)
================================================================================
 Values of the parameters that define the memory need of the present run
   intxc =         1  ionmov =         2    iscf =         3 xclevel =         1
  lmnmax =         2   lnmax =         2   mband =        16  mffmem =         1
P  mgfft =        16   mkmem =         4 mpssoang=         3     mpw =       272
  mqgrid =      3001   natom =         8    nfft =      4096    nkpt =         4
  nloalg =         4  nspden =         1 nspinor =         1  nsppol =         1
    nsym =         1  n1xccc =      2501  ntypat =         1  occopt =         0
================================================================================
P This job should need less than                       1.650 Mbytes of memory.
  Rough estimation (10% accuracy) of disk space for files :
  WF disk file :      0.268 Mbytes ; DEN or POT disk file :      0.033 Mbytes.
================================================================================

 -outvars: echo values of preprocessed input variables --------
     acell    1.0263110000E+01  1.0263110000E+01  1.0263110000E+01 Bohr
       amu    2.80855000E+01
    diemac    1.20000000E+01
      ecut    2.99000000E+00 Hartree
    enunit         2
    iatfix      2    3    4    5    6    7    8
     intxc         1
    ionmov         2
    iprcch         1
    irdwfk         1
      iscf         3
       kpt    1.00000000E+00  1.00000000E+00  1.00000000E+00
             -1.00000000E+00  1.00000000E+00  1.00000000E+00
              1.00000000E+00 -1.00000000E+00  1.00000000E+00
              1.00000000E+00  1.00000000E+00 -1.00000000E+00
    kptnrm    4.00000000E+00
P    mkmem         4
    natfix         7
     natom         8
     nband        16
     ngfft        16      16      16
      nkpt         4
     nline         3
     nstep        80
      nsym         1
     ntime         6
    ntypat         1
       occ    2.000000  2.000000  2.000000  2.000000  2.000000  2.000000
              2.000000  2.000000  2.000000  2.000000  2.000000  2.000000
              2.000000  2.000000  2.000000  2.000000
    occopt         0
    prtgeo         4
    prtpot         1
   spgroup         1
    tolmxf    1.00000000E-05
    tolwfr    1.00000000E-14
     typat    1  1  1  1  1  1  1  1
       wtk      0.25000    0.25000    0.25000    0.25000
    xangst    5.4310039013E-03  0.0000000000E+00  0.0000000000E+00
              1.3577509753E+00  1.3577509753E+00  1.3577509753E+00
              0.0000000000E+00  2.7155019506E+00  2.7155019506E+00
              1.3577509753E+00  4.0732529259E+00  4.0732529259E+00
              2.7155019506E+00  0.0000000000E+00  2.7155019506E+00
              4.0732529259E+00  1.3577509753E+00  4.0732529259E+00
              2.7155019506E+00  2.7155019506E+00  0.0000000000E+00
              4.0732529259E+00  4.0732529259E+00  1.3577509753E+00
     xcart    1.0263110000E-02  0.0000000000E+00  0.0000000000E+00
              2.5657775000E+00  2.5657775000E+00  2.5657775000E+00
              0.0000000000E+00  5.1315550000E+00  5.1315550000E+00
              2.5657775000E+00  7.6973325000E+00  7.6973325000E+00
              5.1315550000E+00  0.0000000000E+00  5.1315550000E+00
              7.6973325000E+00  2.5657775000E+00  7.6973325000E+00
              5.1315550000E+00  5.1315550000E+00  0.0000000000E+00
              7.6973325000E+00  7.6973325000E+00  2.5657775000E+00
      xred    1.0000000000E-03  0.0000000000E+00  0.0000000000E+00
              2.5000000000E-01  2.5000000000E-01  2.5000000000E-01
              0.0000000000E+00  5.0000000000E-01  5.0000000000E-01
              2.5000000000E-01  7.5000000000E-01  7.5000000000E-01
              5.0000000000E-01  0.0000000000E+00  5.0000000000E-01
              7.5000000000E-01  2.5000000000E-01  7.5000000000E-01
              5.0000000000E-01  5.0000000000E-01  0.0000000000E+00
              7.5000000000E-01  7.5000000000E-01  2.5000000000E-01
     znucl     14.00000

================================================================================

 chkinp: Checking input parameters for consistency.

================================================================================
== DATASET  1 ==================================================================

 Real(R)+Recip(G) space primitive vectors, cartesian coordinates (Bohr,Bohr^-1):
 R(1)= 10.2631100  0.0000000  0.0000000  G(1)=  0.0974364  0.0000000  0.0000000
 R(2)=  0.0000000 10.2631100  0.0000000  G(2)=  0.0000000  0.0974364  0.0000000
 R(3)=  0.0000000  0.0000000 10.2631100  G(3)=  0.0000000  0.0000000  0.0974364
 Unit cell volume ucvol=  1.0810280E+03 bohr^3
 Angles (23,13,12)=  9.00000000E+01  9.00000000E+01  9.00000000E+01 degrees

 getcut: wavevector=  0.0000  0.0000  0.0000  ngfft=  16  16  16
         ecut(hartree)=      2.990   => boxcut(ratio)=   2.00281

--- Pseudopotential description ------------------------------------------------
- pspini: atom type   1  psp file is /home/gonze/ABINIT/ABINITv5.6.3/test_gcc43/5.6.3-private/tests/Psps_for_tests/14si.pspnc
- pspatm: opening atomic psp file    /home/gonze/ABINIT/ABINITv5.6.3/test_gcc43/5.6.3-private/tests/Psps_for_tests/14si.pspnc
  Troullier-Martins psp for element  Si        Thu Oct 27 17:31:21 EDT 1994
  14.00000   4.00000    940714                znucl, zion, pspdat
    1    1    2    2      2001   0.00000      pspcod,pspxc,lmax,lloc,mmax,r2well
    0   5.907  14.692    1   2.0872718        l,e99.0,e99.9,nproj,rcpsp
   0.00000000   0.00000000   0.00000000   0.00000000     rms, ekb1, ekb2, epsatm
    1   2.617   4.181    1   2.0872718        l,e99.0,e99.9,nproj,rcpsp
   0.00000000   0.00000000   0.00000000   0.00000000     rms, ekb1, ekb2, epsatm
    2   0.000   0.000    0   2.0872718        l,e99.0,e99.9,nproj,rcpsp
   0.00000000   0.00000000   0.00000000   0.00000000     rms, ekb1, ekb2, epsatm
    1.80626423934776    0.22824404341771    1.17378968127746   rchrg,fchrg,qchrg
 pspatm: epsatm=    1.43386982
         --- l  ekb(1:nproj) -->
             0    3.287949
             1    1.849886
 pspatm: atomic psp has been read  and splines computed

   3.67070674E+02                                ecore*ucvol(ha*bohr**3)
--------------------------------------------------------------------------------

-inwffil : will read wavefunctions from disk file t27o_WFK
P newkpt: treating     16 bands with npw=     272 for ikpt=   1
P newkpt: treating     16 bands with npw=     272 for ikpt=   2
P newkpt: treating     16 bands with npw=     272 for ikpt=   3
P newkpt: treating     16 bands with npw=     272 for ikpt=   4

 setup2: Arith. and geom. avg. npw (full set) are     272.000     272.000

================================================================================

 BROYDEN STEP NUMBER   0  ------------------------------------------------------

     iter   Etot(hartree)      deltaE(h)  residm     vres2    diffor    maxfor
 ETOT  1  -35.191498734381    -3.519E+01 3.009E-09 1.871E-02 5.649E-04 5.649E-04
 ETOT  2  -35.191563133488    -6.440E-05 4.001E-10 4.601E-04 8.654E-04 1.430E-03
 ETOT  3  -35.191565133045    -2.000E-06 2.184E-08 1.706E-05 1.025E-04 1.328E-03
 ETOT  4  -35.191565175001    -4.196E-08 2.229E-10 1.225E-06 4.479E-06 1.323E-03
 ETOT  5  -35.191565177817    -2.816E-09 1.137E-11 9.335E-08 5.413E-07 1.323E-03
 ETOT  6  -35.191565178060    -2.423E-10 2.772E-12 4.546E-09 7.273E-07 1.322E-03
 ETOT  7  -35.191565178077    -1.762E-11 2.020E-13 3.490E-10 8.198E-08 1.322E-03
 ETOT  8  -35.191565178077    -1.421E-14 7.230E-15 1.405E-10 1.531E-07 1.322E-03

 At SCF step    8   max residual=  7.23E-15 < tolwfr=  1.00E-14 =>converged.

 Cartesian components of stress tensor (hartree/bohr^3)
  sigma(1 1)=  3.74713958E-04  sigma(3 2)= -1.63113632E-06
  sigma(2 2)=  3.74696403E-04  sigma(3 1)= -7.13386766E-15
  sigma(3 3)=  3.74696403E-04  sigma(2 1)=  4.26625572E-15

 bonds_lgth_angles : about to open file t28o_TIM0_GEO
 Cartesian coordinates (bohr)
  1.02631100000000E-02  0.00000000000000E+00  0.00000000000000E+00
  2.56577750000000E+00  2.56577750000000E+00  2.56577750000000E+00
  0.00000000000000E+00  5.13155500000000E+00  5.13155500000000E+00
  2.56577750000000E+00  7.69733250000000E+00  7.69733250000000E+00
  5.13155500000000E+00  0.00000000000000E+00  5.13155500000000E+00
  7.69733250000000E+00  2.56577750000000E+00  7.69733250000000E+00
  5.13155500000000E+00  5.13155500000000E+00  0.00000000000000E+00
  7.69733250000000E+00  7.69733250000000E+00  2.56577750000000E+00
 Cartesian forces (hart/bohr); max,rms= 1.32189E-03 7.63196E-04 (free atoms)
 -1.32189417242385E-03 -4.25803652734810E-11  2.99268131413825E-11
  3.26440404051497E-04  2.19406871630860E-04  2.19406858906992E-04
 -1.73299304680473E-04  4.12732266972483E-11 -2.87986086175457E-11
  3.26440404531128E-04 -2.19406869466128E-04 -2.19406861127222E-04
  9.70406356796159E-05 -3.84216321225819E-11 -2.54090050937740E-11
  3.24115695144381E-04 -2.15864314188182E-04  2.15864327881123E-04
  9.70406367906619E-05  3.76722359258458E-11  2.53525206115722E-11
  3.24115700907041E-04  2.15864314079985E-04 -2.15864326732614E-04

 At the end of Broyden step  0, total energy= -3.51915651780772E+01 Ha.


 BROYDEN STEP NUMBER   1  ------------------------------------------------------

     iter   Etot(hartree)      deltaE(h)  residm     vres2    diffor    maxfor
 ETOT  1  -35.191565708404    -3.519E+01 3.076E-11 3.113E-04 7.269E-05 1.249E-03
 ETOT  2  -35.191566779110    -1.071E-06 6.529E-12 7.641E-06 1.114E-04 1.138E-03
 ETOT  3  -35.191566812323    -3.321E-08 3.627E-10 2.839E-07 1.320E-05 1.151E-03
 ETOT  4  -35.191566813021    -6.973E-10 3.705E-12 2.040E-08 5.886E-07 1.152E-03
 ETOT  5  -35.191566813068    -4.690E-11 1.871E-13 1.550E-09 6.868E-08 1.152E-03
 ETOT  6  -35.191566813072    -4.050E-12 4.605E-14 7.559E-11 9.393E-08 1.152E-03
 ETOT  7  -35.191566813072     0.000E+00 4.896E-15 2.877E-11 7.556E-08 1.152E-03

 At SCF step    7   max residual=  4.90E-15 < tolwfr=  1.00E-14 =>converged.

 Cartesian components of stress tensor (hartree/bohr^3)
  sigma(1 1)=  3.74713934E-04  sigma(3 2)= -1.42105432E-06
  sigma(2 2)=  3.74700609E-04  sigma(3 1)=  6.69456171E-15
  sigma(3 3)=  3.74700609E-04  sigma(2 1)= -4.66093062E-15

 bonds_lgth_angles : about to open file t28o_TIM1_GEO
 Cartesian coordinates (bohr)
  8.94121582757615E-03 -4.25803652754428E-11  2.99268131483283E-11
  2.56577750000000E+00  2.56577750000000E+00  2.56577750000000E+00
  0.00000000000000E+00  5.13155500000000E+00  5.13155500000000E+00
  2.56577750000000E+00  7.69733250000000E+00  7.69733250000000E+00
  5.13155500000000E+00  0.00000000000000E+00  5.13155500000000E+00
  7.69733250000000E+00  2.56577750000000E+00  7.69733250000000E+00
  5.13155500000000E+00  5.13155500000000E+00  0.00000000000000E+00
  7.69733250000000E+00  7.69733250000000E+00  2.56577750000000E+00
 Cartesian forces (hart/bohr); max,rms= 1.15167E-03 6.64915E-04 (free atoms)
 -1.15166675001143E-03  5.36248078183430E-12 -3.73184562789995E-12
  2.84262849083999E-04  1.90960329140776E-04  1.90960329876923E-04
 -1.50966705042885E-04 -3.33399386905215E-13  2.31154972302669E-13
  2.84262849627238E-04 -1.90960330576450E-04 -1.90960329798215E-04
  8.45552279859505E-05  6.48042703624070E-13  2.28587479476395E-13
  2.82498651701486E-04 -1.88271807393589E-04  1.88271807282922E-04
  8.45552279854188E-05 -3.29023287009110E-13 -4.54097469054127E-13
  2.82498648670224E-04  1.88271803481162E-04 -1.88271803635429E-04

 At the end of Broyden step  1, total energy= -3.51915668130717E+01 Ha.


 BROYDEN STEP NUMBER   2  ------------------------------------------------------

     iter   Etot(hartree)      deltaE(h)  residm     vres2    diffor    maxfor
 ETOT  1  -35.191521510097    -3.519E+01 1.400E-09 1.421E-02 4.924E-04 6.593E-04
 ETOT  2  -35.191570410261    -4.890E-05 2.988E-10 3.490E-04 7.540E-04 9.470E-05
 ETOT  3  -35.191571927871    -1.518E-06 1.657E-08 1.296E-05 8.948E-05 5.228E-06
 ETOT  4  -35.191571959662    -3.179E-08 1.690E-10 9.293E-07 3.905E-06 1.323E-06
 ETOT  5  -35.191571961792    -2.130E-09 7.457E-12 6.955E-08 4.583E-07 8.645E-07
 ETOT  6  -35.191571961972    -1.796E-10 2.057E-12 3.360E-09 6.486E-07 2.158E-07
 ETOT  7  -35.191571961985    -1.306E-11 1.492E-13 2.511E-10 7.502E-08 2.908E-07
 ETOT  8  -35.191571961985    -1.421E-14 5.093E-15 1.012E-10 1.288E-07 1.620E-07

 At SCF step    8   max residual=  5.09E-15 < tolwfr=  1.00E-14 =>converged.

 Cartesian components of stress tensor (hartree/bohr^3)
  sigma(1 1)=  3.74713846E-04  sigma(3 2)=  2.85358215E-10
  sigma(2 2)=  3.74713846E-04  sigma(3 1)=  0.00000000E+00
  sigma(3 3)=  3.74713846E-04  sigma(2 1)=  0.00000000E+00

 bonds_lgth_angles : about to open file t28o_TIM2_GEO
 Cartesian coordinates (bohr)
 -2.00579817370586E-06 -9.38237382371181E-13  9.47316694842021E-13
  2.56577750000000E+00  2.56577750000000E+00  2.56577750000000E+00
  0.00000000000000E+00  5.13155500000000E+00  5.13155500000000E+00
  2.56577750000000E+00  7.69733250000000E+00  7.69733250000000E+00
  5.13155500000000E+00  0.00000000000000E+00  5.13155500000000E+00
  7.69733250000000E+00  2.56577750000000E+00  7.69733250000000E+00
  5.13155500000000E+00  5.13155500000000E+00  0.00000000000000E+00
  7.69733250000000E+00  7.69733250000000E+00  2.56577750000000E+00
 Cartesian forces (hart/bohr); max,rms= 1.61997E-07 9.35289E-08 (free atoms)
  1.61996862143337E-07  1.20638561487682E-13 -1.22528535864717E-13
 -6.46190737515440E-08 -4.58234215260778E-08 -4.58234168804522E-08
 -8.12439254557390E-08 -1.00563891034118E-14  6.26662641610047E-15
 -6.46190737242296E-08  4.58234026245802E-08  4.58234388847236E-08
  8.79017955818214E-08  1.66294850474732E-14  1.04433958095988E-14
 -6.36591520039744E-08  4.53728457018373E-08 -4.53728286930597E-08
  8.79017956745996E-08 -9.99075790143248E-15 -1.69034363418386E-14
 -6.36592284642708E-08 -4.53729440212392E-08  4.53729294107383E-08

 At the end of Broyden step  2, total energy= -3.51915719619848E+01 Ha.


 At Broyd/MD step   2, gradients are converged :
  max grad (force/stress) = 1.6200E-07 < tolmxf= 1.0000E-05 ha/bohr (free atoms)

================================================================================

 ----iterations are completed or convergence reached----

 Mean square residual over all n,k,spin=   3.9073E-15; max=  5.0927E-15
   0.2500  0.2500  0.2500    1  5.05907E-15 kpt; spin; max resid(k); each band:
 4.63E-15 3.56E-15 3.65E-15 3.69E-15 3.81E-15 3.62E-15 3.70E-15 3.87E-15
 5.01E-15 5.06E-15 5.00E-15 3.32E-15 3.60E-15 3.68E-15 3.09E-15 3.26E-15
  -0.2500  0.2500  0.2500    1  5.05907E-15 kpt; spin; max resid(k); each band:
 4.63E-15 3.56E-15 3.65E-15 3.69E-15 3.81E-15 3.62E-15 3.70E-15 3.87E-15
 5.01E-15 5.06E-15 5.00E-15 3.32E-15 3.60E-15 3.68E-15 3.09E-15 3.26E-15
   0.2500 -0.2500  0.2500    1  5.09266E-15 kpt; spin; max resid(k); each band:
 4.63E-15 3.55E-15 3.63E-15 3.69E-15 3.70E-15 3.69E-15 3.74E-15 3.88E-15
 4.94E-15 5.03E-15 5.09E-15 3.62E-15 3.63E-15 3.34E-15 3.25E-15 3.07E-15
   0.2500  0.2500 -0.2500    1  5.09266E-15 kpt; spin; max resid(k); each band:
 4.63E-15 3.55E-15 3.63E-15 3.69E-15 3.70E-15 3.69E-15 3.74E-15 3.88E-15
 4.94E-15 5.03E-15 5.09E-15 3.62E-15 3.63E-15 3.34E-15 3.25E-15 3.07E-15
 reduced coordinates (array xred) for    8 atoms
      -0.000000195438     -0.000000000000      0.000000000000
       0.250000000000      0.250000000000      0.250000000000
       0.000000000000      0.500000000000      0.500000000000
       0.250000000000      0.750000000000      0.750000000000
       0.500000000000      0.000000000000      0.500000000000
       0.750000000000      0.250000000000      0.750000000000
       0.500000000000      0.500000000000      0.000000000000
       0.750000000000      0.750000000000      0.250000000000
 rms dE/dt=  5.9767E-07; max dE/dt=  8.2646E-07; dE/dt below (all hartree)
    1      -0.000001669942     -0.000000000001      0.000000000001
    2       0.000000655842      0.000000470291      0.000000470291
    3       0.000000826465      0.000000000000     -0.000000000000
    4       0.000000655842     -0.000000470291     -0.000000470291
    5      -0.000000909496     -0.000000000000     -0.000000000000
    6       0.000000645990     -0.000000465667      0.000000465666
    7      -0.000000909496      0.000000000000      0.000000000000
    8       0.000000645991      0.000000465668     -0.000000465667

 cartesian coordinates (angstrom) at end:
    1     -0.00000106142268    -0.00000000000050     0.00000000000050
    2      1.35775097531303     1.35775097531303     1.35775097531303
    3      0.00000000000000     2.71550195062606     2.71550195062606
    4      1.35775097531303     4.07325292593909     4.07325292593909
    5      2.71550195062606     0.00000000000000     2.71550195062606
    6      4.07325292593909     1.35775097531303     4.07325292593909
    7      2.71550195062606     2.71550195062606     0.00000000000000
    8      4.07325292593909     4.07325292593909     1.35775097531303

 cartesian forces (hartree/bohr) at end:
    1      0.00000016199686     0.00000000000012    -0.00000000000012
    2     -0.00000006461907    -0.00000004582342    -0.00000004582342
    3     -0.00000008124393    -0.00000000000001     0.00000000000001
    4     -0.00000006461907     0.00000004582340     0.00000004582344
    5      0.00000008790180     0.00000000000002     0.00000000000001
    6     -0.00000006365915     0.00000004537285    -0.00000004537283
    7      0.00000008790180    -0.00000000000001    -0.00000000000002
    8     -0.00000006365923    -0.00000004537294     0.00000004537293
 frms,max,avg= 9.3528932E-08 1.6199686E-07   7.162E-10  0.000E+00  0.000E+00 h/b

 cartesian forces (eV/Angstrom) at end:
    1      0.00000833021288     0.00000000000620    -0.00000000000630
    2     -0.00000332284609    -0.00000235633488    -0.00000235633464
    3     -0.00000417773027    -0.00000000000052     0.00000000000032
    4     -0.00000332284609     0.00000235633391     0.00000235633577
    5      0.00000452009169     0.00000000000086     0.00000000000054
    6     -0.00000327348494     0.00000233316534    -0.00000233316446
    7      0.00000452009169    -0.00000000000051    -0.00000000000087
    8     -0.00000327348887    -0.00000233317039     0.00000233316964
 frms,max,avg= 4.8094506E-06 8.3302129E-06   3.683E-08  0.000E+00  0.000E+00 e/A
 length scales= 10.263110000000 10.263110000000 10.263110000000 bohr
              =  5.431003901252  5.431003901252  5.431003901252 angstroms
 prteigrs : about to open file t28o_EIG
 Fermi (or HOMO) energy (hartree) =   0.18884   Average Vxc (hartree)=  -0.35270
 Eigenvalues (hartree) for nkpt=   4  k points:
 kpt#   1, nband= 16, wtk=  0.25000, kpt=  0.2500  0.2500  0.2500 (reduced coord)
  -0.18706  -0.11509  -0.11509  -0.11509  -0.01360  -0.01360  -0.01360   0.07380
   0.08415   0.08415   0.08415   0.13265   0.13265   0.13265   0.18884   0.18884
 kpt#   2, nband= 16, wtk=  0.25000, kpt= -0.2500  0.2500  0.2500 (reduced coord)
  -0.18706  -0.11509  -0.11509  -0.11509  -0.01360  -0.01360  -0.01360   0.07380
   0.08415   0.08415   0.08415   0.13265   0.13265   0.13265   0.18884   0.18884
 kpt#   3, nband= 16, wtk=  0.25000, kpt=  0.2500 -0.2500  0.2500 (reduced coord)
  -0.18706  -0.11509  -0.11509  -0.11509  -0.01360  -0.01360  -0.01360   0.07380
   0.08415   0.08415   0.08415   0.13265   0.13265   0.13265   0.18884   0.18884
 kpt#   4, nband= 16, wtk=  0.25000, kpt=  0.2500  0.2500 -0.2500 (reduced coord)
  -0.18706  -0.11509  -0.11509  -0.11509  -0.01360  -0.01360  -0.01360   0.07380
   0.08415   0.08415   0.08415   0.13265   0.13265   0.13265   0.18884   0.18884
 Fermi (or HOMO) energy (eV) =   5.13863   Average Vxc (eV)=  -9.59736
 Eigenvalues (   eV  ) for nkpt=   4  k points:
 kpt#   1, nband= 16, wtk=  0.25000, kpt=  0.2500  0.2500  0.2500 (reduced coord)
  -5.09006  -3.13167  -3.13167  -3.13167  -0.36997  -0.36997  -0.36997   2.00822
   2.28982   2.28982   2.28982   3.60963   3.60963   3.60963   5.13862   5.13863
 kpt#   2, nband= 16, wtk=  0.25000, kpt= -0.2500  0.2500  0.2500 (reduced coord)
  -5.09006  -3.13167  -3.13167  -3.13167  -0.36997  -0.36997  -0.36997   2.00822
   2.28982   2.28982   2.28982   3.60963   3.60963   3.60963   5.13862   5.13863
 kpt#   3, nband= 16, wtk=  0.25000, kpt=  0.2500 -0.2500  0.2500 (reduced coord)
  -5.09006  -3.13167  -3.13167  -3.13167  -0.36997  -0.36997  -0.36997   2.00822
   2.28982   2.28982   2.28982   3.60963   3.60963   3.60963   5.13863   5.13863
 kpt#   4, nband= 16, wtk=  0.25000, kpt=  0.2500  0.2500 -0.2500 (reduced coord)
  -5.09006  -3.13167  -3.13167  -3.13167  -0.36997  -0.36997  -0.36997   2.00822
   2.28982   2.28982   2.28982   3.60963   3.60963   3.60963   5.13863   5.13863
 Total charge density [el/Bohr^3]
,     Maximum=    8.7993E-02  at reduced coord.    0.8750    0.1250    0.8750
,Next maximum=    8.7993E-02  at reduced coord.    0.8750    0.8750    0.1250
,     Minimum=    3.4763E-03  at reduced coord.    0.2500    0.7500    0.2500
,Next minimum=    3.4763E-03  at reduced coord.    0.2500    0.2500    0.7500

--------------------------------------------------------------------------------
 Components of total free energy (in Hartree) :

    Kinetic energy  =  1.16819735819717E+01
    Hartree energy  =  2.12455537114986E+00
    XC energy       = -1.41070083929008E+01
    Ewald energy    = -3.35916768723193E+01
    PspCore energy  =  3.39557039532177E-01
    Loc. psp. energy= -9.85492267182821E+00
    NL   psp  energy=  8.21594998240976E+00
    >>>>>>>>> Etotal= -3.51915719619848E+01

 Other information on the energy :
    Total energy(eV)= -9.57611373294382E+02 ; Band energy (Ha)=   1.0575624972E+00
--------------------------------------------------------------------------------
 rms coord change=  2.0416E-04   atom, delta coord (reduced):
     1       -0.001000195438     -0.000000000000      0.000000000000
     2        0.000000000000      0.000000000000      0.000000000000
     3        0.000000000000      0.000000000000      0.000000000000
     4        0.000000000000      0.000000000000      0.000000000000
     5        0.000000000000      0.000000000000      0.000000000000
     6        0.000000000000      0.000000000000      0.000000000000
     7        0.000000000000      0.000000000000      0.000000000000
     8        0.000000000000      0.000000000000      0.000000000000

 Cartesian components of stress tensor (hartree/bohr^3)
  sigma(1 1)=  3.74713846E-04  sigma(3 2)=  2.85358215E-10
  sigma(2 2)=  3.74713846E-04  sigma(3 1)=  0.00000000E+00
  sigma(3 3)=  3.74713846E-04  sigma(2 1)=  0.00000000E+00

-Cartesian components of stress tensor (GPa)         [Pressure= -1.1024E+01 GPa]
- sigma(1 1)=  1.10244601E+01  sigma(3 2)=  8.39552712E-06
- sigma(2 2)=  1.10244601E+01  sigma(3 1)=  0.00000000E+00
- sigma(3 3)=  1.10244601E+01  sigma(2 1)=  0.00000000E+00

== END DATASET(S) ==============================================================
================================================================================
  
 -outvars: echo values of variables after computation  --------
     acell    1.0263110000E+01  1.0263110000E+01  1.0263110000E+01 Bohr
       amu    2.80855000E+01
    diemac    1.20000000E+01
      ecut    2.99000000E+00 Hartree
    enunit         2
    etotal   -3.5191571962E+01
     fcart    1.6199686214E-07  1.2063856149E-13 -1.2252853586E-13
             -6.4619073752E-08 -4.5823421526E-08 -4.5823416880E-08
             -8.1243925456E-08 -1.0056389103E-14  6.2666264161E-15
             -6.4619073724E-08  4.5823402625E-08  4.5823438885E-08
              8.7901795582E-08  1.6629485047E-14  1.0443395810E-14
             -6.3659152004E-08  4.5372845702E-08 -4.5372828693E-08
              8.7901795675E-08 -9.9907579014E-15 -1.6903436342E-14
             -6.3659228464E-08 -4.5372944021E-08  4.5372929411E-08
    iatfix      2    3    4    5    6    7    8
     intxc         1
    ionmov         2
    iprcch         1
    irdwfk         1
      iscf         3
       kpt    1.00000000E+00  1.00000000E+00  1.00000000E+00
             -1.00000000E+00  1.00000000E+00  1.00000000E+00
              1.00000000E+00 -1.00000000E+00  1.00000000E+00
              1.00000000E+00  1.00000000E+00 -1.00000000E+00
    kptnrm    4.00000000E+00
P    mkmem         4
    natfix         7
     natom         8
     nband        16
     ngfft        16      16      16
      nkpt         4
     nline         3
     nstep        80
      nsym         1
     ntime         6
    ntypat         1
       occ    2.000000  2.000000  2.000000  2.000000  2.000000  2.000000
              2.000000  2.000000  2.000000  2.000000  2.000000  2.000000
              2.000000  2.000000  2.000000  2.000000
    occopt         0
    prtgeo         4
    prtpot         1
   spgroup         1
    strten    3.7471384601E-04  3.7471384596E-04  3.7471384591E-04
              2.8535821473E-10  0.0000000000E+00  0.0000000000E+00
    tolmxf    1.00000000E-05
    tolwfr    1.00000000E-14
     typat    1  1  1  1  1  1  1  1
       wtk      0.25000    0.25000    0.25000    0.25000
    xangst   -1.0614226786E-06 -4.9649383900E-13  5.0129840423E-13
              1.3577509753E+00  1.3577509753E+00  1.3577509753E+00
              0.0000000000E+00  2.7155019506E+00  2.7155019506E+00
              1.3577509753E+00  4.0732529259E+00  4.0732529259E+00
              2.7155019506E+00  0.0000000000E+00  2.7155019506E+00
              4.0732529259E+00  1.3577509753E+00  4.0732529259E+00
              2.7155019506E+00  2.7155019506E+00  0.0000000000E+00
              4.0732529259E+00  4.0732529259E+00  1.3577509753E+00
     xcart   -2.0057981737E-06 -9.3823738237E-13  9.4731669484E-13
              2.5657775000E+00  2.5657775000E+00  2.5657775000E+00
              0.0000000000E+00  5.1315550000E+00  5.1315550000E+00
              2.5657775000E+00  7.6973325000E+00  7.6973325000E+00
              5.1315550000E+00  0.0000000000E+00  5.1315550000E+00
              7.6973325000E+00  2.5657775000E+00  7.6973325000E+00
              5.1315550000E+00  5.1315550000E+00  0.0000000000E+00
              7.6973325000E+00  7.6973325000E+00  2.5657775000E+00
      xred   -1.9543765717E-07 -9.1418427979E-14  9.2303083066E-14
              2.5000000000E-01  2.5000000000E-01  2.5000000000E-01
              0.0000000000E+00  5.0000000000E-01  5.0000000000E-01
              2.5000000000E-01  7.5000000000E-01  7.5000000000E-01
              5.0000000000E-01  0.0000000000E+00  5.0000000000E-01
              7.5000000000E-01  2.5000000000E-01  7.5000000000E-01
              5.0000000000E-01  5.0000000000E-01  0.0000000000E+00
              7.5000000000E-01  7.5000000000E-01  2.5000000000E-01
     znucl     14.00000

================================================================================

- Total cpu        time (s,m,h):          4.1        0.07      0.001
- Total wall clock time (s,m,h):          4.1        0.07      0.001

- For major independent code sections, cpu and wall times (sec),
- as well as % of the total time and number of calls 

- routine                 cpu     %       wall     %      number of calls 
-                                                          (-1=no count)
- fourwf(pot)            1.365  33.0      1.363  32.9           6848
- nonlop(apply)          0.423  10.2      0.458  11.1           6848
- timing timab           0.352   8.5      0.352   8.5             11
- projbd                 0.349   8.4      0.342   8.3           9984
- pspini                 0.224   5.4      0.224   5.4              1
- vtowfk(ssdiag)         0.204   4.9      0.200   4.8             -1
- fourwf(den)            0.178   4.3      0.172   4.2           1536
- nonlop(forces)         0.134   3.2      0.132   3.2           1472
- invars2                0.113   2.7      0.112   2.7              1
- getghc-other           0.102   2.5      0.083   2.0             -1
- forces                 0.085   2.1      0.085   2.1             23
- ewald                  0.047   1.1      0.048   1.2              3
- stress                 0.034   0.8      0.035   0.8              3
- mkcore                 0.034   0.8      0.039   0.9             29
- abinit(2)              0.033   0.8      0.034   0.8              1
- ewald2                 0.028   0.7      0.029   0.7              3
- vtowfk(contrib)        0.027   0.7      0.029   0.7             92
- xc:pot/=fourdp         0.025   0.6      0.026   0.6             26
- fourdp                 0.023   0.6      0.017   0.4            197
- nonlop(forstr)         0.018   0.4      0.023   0.6            192
- vtorho-kpt loop        0.012   0.3      0.021   0.5             23
- 49   others            0.035   0.8      0.035   0.8

- subtotal               3.845  92.9      3.859  93.2

================================================================================

 Calculation completed.
.Delivered    5 WARNINGs and   1 COMMENTs to log file.
+Overall time at end (sec) : cpu=          4.1  wall=          4.1
