
.Version 5.6.3  of ABINIT 
.(sequential version, prepared for a x86_64_linux_gcc4.3 computer) 

.Copyright (C) 1998-2008 ABINIT group . 
 ABINIT comes with ABSOLUTELY NO WARRANTY.
 It is free software, and you are welcome to redistribute it
 under certain conditions (GNU General Public License,
 see ~abinit/COPYING or http://www.gnu.org/copyleft/gpl.txt).

 ABINIT is a project of the Universite Catholique de Louvain,
 Corning Inc. and other collaborators, see ~abinit/doc/developers/contributors.txt .
 Please read ~abinit/doc/users/acknowledgments.html for suggested
 acknowledgments of the ABINIT effort.
 For more information, see http://www.abinit.org .

.Starting date : Thu  6 Nov 2008.
  
- input  file    -> /home/gonze/ABINIT/ABINITv5.6.3/test_gcc43/5.6.3-private/tests/fast/Input/t29.in
- output file    -> t29.out
- root for input  files -> t27o
- root for output files -> t29o


 Symmetries : space group P1 (#  1); Bravais aP (primitive triclinic)
================================================================================
 Values of the parameters that define the memory need of the present run
   intxc =         1  ionmov =         1    iscf =         3 xclevel =         1
  lmnmax =         2   lnmax =         2   mband =        16  mffmem =         1
P  mgfft =        16   mkmem =         4 mpssoang=         3     mpw =       272
  mqgrid =      3001   natom =         8    nfft =      4096    nkpt =         4
  nloalg =         4  nspden =         1 nspinor =         1  nsppol =         1
    nsym =         1  n1xccc =      2501  ntypat =         1  occopt =         0
================================================================================
P This job should need less than                       1.646 Mbytes of memory.
  Rough estimation (10% accuracy) of disk space for files :
  WF disk file :      0.268 Mbytes ; DEN or POT disk file :      0.033 Mbytes.
================================================================================

 -outvars: echo values of preprocessed input variables --------
     acell    1.0263110000E+01  1.0263110000E+01  1.0263110000E+01 Bohr
       amu    2.80000000E+01
    diemac    1.20000000E+01
     dtion    3.50000000E+02
      ecut    2.99000000E+00 Hartree
    enunit         2
    iatfix      2    3    4    5    6    7    8
     intxc         1
    ionmov         1
    iprcch         1
    irdwfk         1
      iscf         3
       kpt    1.00000000E+00  1.00000000E+00  1.00000000E+00
             -1.00000000E+00  1.00000000E+00  1.00000000E+00
              1.00000000E+00 -1.00000000E+00  1.00000000E+00
              1.00000000E+00  1.00000000E+00 -1.00000000E+00
    kptnrm    4.00000000E+00
P    mkmem         4
    natfix         7
     natom         8
     nband        16
     ngfft        16      16      16
      nkpt         4
     nline         3
     nstep         5
      nsym         1
     ntime         8
    ntypat         1
       occ    2.000000  2.000000  2.000000  2.000000  2.000000  2.000000
              2.000000  2.000000  2.000000  2.000000  2.000000  2.000000
              2.000000  2.000000  2.000000  2.000000
    occopt         0
    prtgeo         4
   spgroup         1
    tolmxf    1.00000000E-05
    tolwfr    1.00000000E-14
     typat    1  1  1  1  1  1  1  1
       vis    4.00000000E+02
       wtk      0.25000    0.25000    0.25000    0.25000
    xangst    5.4310039013E-03  0.0000000000E+00  0.0000000000E+00
              1.3577509753E+00  1.3577509753E+00  1.3577509753E+00
              0.0000000000E+00  2.7155019506E+00  2.7155019506E+00
              1.3577509753E+00  4.0732529259E+00  4.0732529259E+00
              2.7155019506E+00  0.0000000000E+00  2.7155019506E+00
              4.0732529259E+00  1.3577509753E+00  4.0732529259E+00
              2.7155019506E+00  2.7155019506E+00  0.0000000000E+00
              4.0732529259E+00  4.0732529259E+00  1.3577509753E+00
     xcart    1.0263110000E-02  0.0000000000E+00  0.0000000000E+00
              2.5657775000E+00  2.5657775000E+00  2.5657775000E+00
              0.0000000000E+00  5.1315550000E+00  5.1315550000E+00
              2.5657775000E+00  7.6973325000E+00  7.6973325000E+00
              5.1315550000E+00  0.0000000000E+00  5.1315550000E+00
              7.6973325000E+00  2.5657775000E+00  7.6973325000E+00
              5.1315550000E+00  5.1315550000E+00  0.0000000000E+00
              7.6973325000E+00  7.6973325000E+00  2.5657775000E+00
      xred    1.0000000000E-03  0.0000000000E+00  0.0000000000E+00
              2.5000000000E-01  2.5000000000E-01  2.5000000000E-01
              0.0000000000E+00  5.0000000000E-01  5.0000000000E-01
              2.5000000000E-01  7.5000000000E-01  7.5000000000E-01
              5.0000000000E-01  0.0000000000E+00  5.0000000000E-01
              7.5000000000E-01  2.5000000000E-01  7.5000000000E-01
              5.0000000000E-01  5.0000000000E-01  0.0000000000E+00
              7.5000000000E-01  7.5000000000E-01  2.5000000000E-01
     znucl     14.00000

================================================================================

 chkinp: Checking input parameters for consistency.

================================================================================
== DATASET  1 ==================================================================

 Real(R)+Recip(G) space primitive vectors, cartesian coordinates (Bohr,Bohr^-1):
 R(1)= 10.2631100  0.0000000  0.0000000  G(1)=  0.0974364  0.0000000  0.0000000
 R(2)=  0.0000000 10.2631100  0.0000000  G(2)=  0.0000000  0.0974364  0.0000000
 R(3)=  0.0000000  0.0000000 10.2631100  G(3)=  0.0000000  0.0000000  0.0974364
 Unit cell volume ucvol=  1.0810280E+03 bohr^3
 Angles (23,13,12)=  9.00000000E+01  9.00000000E+01  9.00000000E+01 degrees

 getcut: wavevector=  0.0000  0.0000  0.0000  ngfft=  16  16  16
         ecut(hartree)=      2.990   => boxcut(ratio)=   2.00281

--- Pseudopotential description ------------------------------------------------
- pspini: atom type   1  psp file is /home/gonze/ABINIT/ABINITv5.6.3/test_gcc43/5.6.3-private/tests/Psps_for_tests/14si.pspnc
- pspatm: opening atomic psp file    /home/gonze/ABINIT/ABINITv5.6.3/test_gcc43/5.6.3-private/tests/Psps_for_tests/14si.pspnc
  Troullier-Martins psp for element  Si        Thu Oct 27 17:31:21 EDT 1994
  14.00000   4.00000    940714                znucl, zion, pspdat
    1    1    2    2      2001   0.00000      pspcod,pspxc,lmax,lloc,mmax,r2well
    0   5.907  14.692    1   2.0872718        l,e99.0,e99.9,nproj,rcpsp
   0.00000000   0.00000000   0.00000000   0.00000000     rms, ekb1, ekb2, epsatm
    1   2.617   4.181    1   2.0872718        l,e99.0,e99.9,nproj,rcpsp
   0.00000000   0.00000000   0.00000000   0.00000000     rms, ekb1, ekb2, epsatm
    2   0.000   0.000    0   2.0872718        l,e99.0,e99.9,nproj,rcpsp
   0.00000000   0.00000000   0.00000000   0.00000000     rms, ekb1, ekb2, epsatm
    1.80626423934776    0.22824404341771    1.17378968127746   rchrg,fchrg,qchrg
 pspatm: epsatm=    1.43386982
         --- l  ekb(1:nproj) -->
             0    3.287949
             1    1.849886
 pspatm: atomic psp has been read  and splines computed

   3.67070674E+02                                ecore*ucvol(ha*bohr**3)
--------------------------------------------------------------------------------

-inwffil : will read wavefunctions from disk file t27o_WFK
P newkpt: treating     16 bands with npw=     272 for ikpt=   1
P newkpt: treating     16 bands with npw=     272 for ikpt=   2
P newkpt: treating     16 bands with npw=     272 for ikpt=   3
P newkpt: treating     16 bands with npw=     272 for ikpt=   4

 setup2: Arith. and geom. avg. npw (full set) are     272.000     272.000

================================================================================

 TIME STEP NUMBER   1  ------------------------------------------------------
 (initialisation period : icalls=1)

     iter   Etot(hartree)      deltaE(h)  residm     vres2    diffor    maxfor
 ETOT  1  -35.191498734381    -3.519E+01 3.009E-09 1.871E-02 5.649E-04 5.649E-04
 ETOT  2  -35.191563133488    -6.440E-05 4.001E-10 4.601E-04 8.654E-04 1.430E-03
 ETOT  3  -35.191565133045    -2.000E-06 2.184E-08 1.706E-05 1.025E-04 1.328E-03
 ETOT  4  -35.191565175001    -4.196E-08 2.229E-10 1.225E-06 4.479E-06 1.323E-03
 ETOT  5  -35.191565177817    -2.816E-09 1.137E-11 9.335E-08 5.413E-07 1.323E-03

 Cartesian components of stress tensor (hartree/bohr^3)
  sigma(1 1)=  3.74713905E-04  sigma(3 2)= -1.63016739E-06
  sigma(2 2)=  3.74696405E-04  sigma(3 1)=  5.29434303E-14
  sigma(3 3)=  3.74696405E-04  sigma(2 1)= -6.13814613E-14


 scprqt:  WARNING -
  nstep=    5 was not enough SCF cycles to converge;
  maximum residual=  1.137E-11 exceeds tolwfr=  1.000E-14

 bonds_lgth_angles : about to open file t29o_TIMA_GEO
 Cartesian coordinates (bohr)
  1.02631100000000E-02  0.00000000000000E+00  0.00000000000000E+00
  2.56577750000000E+00  2.56577750000000E+00  2.56577750000000E+00
  0.00000000000000E+00  5.13155500000000E+00  5.13155500000000E+00
  2.56577750000000E+00  7.69733250000000E+00  7.69733250000000E+00
  5.13155500000000E+00  0.00000000000000E+00  5.13155500000000E+00
  7.69733250000000E+00  2.56577750000000E+00  7.69733250000000E+00
  5.13155500000000E+00  5.13155500000000E+00  0.00000000000000E+00
  7.69733250000000E+00  7.69733250000000E+00  2.56577750000000E+00
 Velocities (bohr/(atomic time unit))
  0.00000000000000E+00  0.00000000000000E+00  0.00000000000000E+00
  0.00000000000000E+00  0.00000000000000E+00  0.00000000000000E+00
  0.00000000000000E+00  0.00000000000000E+00  0.00000000000000E+00
  0.00000000000000E+00  0.00000000000000E+00  0.00000000000000E+00
  0.00000000000000E+00  0.00000000000000E+00  0.00000000000000E+00
  0.00000000000000E+00  0.00000000000000E+00  0.00000000000000E+00
  0.00000000000000E+00  0.00000000000000E+00  0.00000000000000E+00
  0.00000000000000E+00  0.00000000000000E+00  0.00000000000000E+00
 Cartesian forces (hart/bohr); max,rms= 1.32269E-03 7.63657E-04 (free atoms)
 -1.32269251289932E-03  9.31274541837748E-11 -6.34332724695501E-11
  3.26463808250345E-04  2.19596975551928E-04  2.19597119087638E-04
 -1.73323981038292E-04 -1.25873617193483E-10  8.17741601949912E-11
  3.26463843264646E-04 -2.19597094829951E-04 -2.19596990062093E-04
  9.73983931389188E-05  9.89425279409879E-11  2.57787318968781E-11
  3.24146047042725E-04 -2.16064172516032E-04  2.16064173686971E-04
  9.73984691871138E-05 -1.87383450627819E-11 -7.01123581201715E-11
  3.24145933053867E-04  2.16064244336036E-04 -2.16064276719777E-04


 TIME STEP NUMBER   1  ------------------------------------------------------
 (initialisation period : icalls=2)

     iter   Etot(hartree)      deltaE(h)  residm     vres2    diffor    maxfor
 ETOT  1  -35.191565177090    -3.519E+01 9.613E-15 3.119E-07 3.749E-07 1.322E-03

 At SCF step    1   max residual=  9.61E-15 < tolwfr=  1.00E-14 =>converged.

 Cartesian components of stress tensor (hartree/bohr^3)
  sigma(1 1)=  3.74714100E-04  sigma(3 2)= -1.63146151E-06
  sigma(2 2)=  3.74696363E-04  sigma(3 1)= -7.99933331E-14
  sigma(3 3)=  3.74696363E-04  sigma(2 1)=  6.64139931E-14

 bonds_lgth_angles : about to open file t29o_TIMB_GEO
 Cartesian coordinates (bohr)
  1.02631100000000E-02  0.00000000000000E+00  0.00000000000000E+00
  2.56577750000000E+00  2.56577750000000E+00  2.56577750000000E+00
  0.00000000000000E+00  5.13155500000000E+00  5.13155500000000E+00
  2.56577750000000E+00  7.69733250000000E+00  7.69733250000000E+00
  5.13155500000000E+00  0.00000000000000E+00  5.13155500000000E+00
  7.69733250000000E+00  2.56577750000000E+00  7.69733250000000E+00
  5.13155500000000E+00  5.13155500000000E+00  0.00000000000000E+00
  7.69733250000000E+00  7.69733250000000E+00  2.56577750000000E+00
 Cartesian forces (hart/bohr); max,rms= 1.32232E-03 7.63440E-04 (free atoms)
 -1.32231757447257E-03  6.56864708614825E-11 -5.10402582066310E-11
  3.26444173190927E-04  2.19331552221135E-04  2.19331504240705E-04
 -1.74038066405436E-04 -8.51338629778319E-12  4.54145797085495E-12
  3.26444146786462E-04 -2.19331501035287E-04 -2.19331567637675E-04
  9.76200815403461E-05  3.99057982801187E-11  6.88635288130971E-11
  3.24113587964977E-04 -2.15767124676974E-04  2.15767066599406E-04
  9.76200290684908E-05 -1.13760279058970E-10 -1.00074915708004E-11
  3.24113622326805E-04  2.15767090172521E-04 -2.15767015559673E-04


 TIME STEP NUMBER   1  ------------------------------------------------------
 (initialisation period : icalls=3)

     iter   Etot(hartree)      deltaE(h)  residm     vres2    diffor    maxfor
 ETOT  1  -35.191565852871    -3.519E+01 1.046E-11 9.122E-05 4.495E-05 1.277E-03
 ETOT  2  -35.191566176993    -3.241E-07 2.151E-12 2.120E-06 6.575E-05 1.212E-03
 ETOT  3  -35.191566186458    -9.465E-09 1.046E-10 8.484E-08 7.808E-06 1.219E-03
 ETOT  4  -35.191566186668    -2.105E-10 1.125E-12 5.922E-09 2.644E-07 1.220E-03
 ETOT  5  -35.191566186682    -1.371E-11 5.503E-14 4.954E-10 4.793E-08 1.220E-03

 Cartesian components of stress tensor (hartree/bohr^3)
  sigma(1 1)=  3.74713950E-04  sigma(3 2)= -1.50511246E-06
  sigma(2 2)=  3.74698997E-04  sigma(3 1)= -8.94043277E-15
  sigma(3 3)=  3.74698997E-04  sigma(2 1)=  5.96514043E-15


 scprqt:  WARNING -
  nstep=    5 was not enough SCF cycles to converge;
  maximum residual=  5.503E-14 exceeds tolwfr=  1.000E-14

 bonds_lgth_angles : about to open file t29o_TIMC_GEO
 Cartesian coordinates (bohr)
  9.46948222272688E-03  5.58773363772710E-11 -3.80605519001686E-11
  2.56577750000000E+00  2.56577750000000E+00  2.56577750000000E+00
  0.00000000000000E+00  5.13155500000000E+00  5.13155500000000E+00
  2.56577750000000E+00  7.69733250000000E+00  7.69733250000000E+00
  5.13155500000000E+00  0.00000000000000E+00  5.13155500000000E+00
  7.69733250000000E+00  2.56577750000000E+00  7.69733250000000E+00
  5.13155500000000E+00  5.13155500000000E+00  0.00000000000000E+00
  7.69733250000000E+00  7.69733250000000E+00  2.56577750000000E+00
 Cartesian forces (hart/bohr); max,rms= 1.21974E-03 7.04218E-04 (free atoms)
 -1.21974127418706E-03 -7.41339696502204E-12  5.00828131994723E-12
  3.01112981247415E-04  2.02304372561953E-04  2.02304371673817E-04
 -1.60020368123010E-04  7.51236125768890E-13 -5.42877558317758E-13
  3.01112980477971E-04 -2.02304370689525E-04 -2.02304371584089E-04
  8.96353314963588E-05 -1.17857068586310E-12 -5.99362398268612E-13
  2.99132506898251E-04 -1.99284666502587E-04  1.99284666652451E-04
  8.96353314620251E-05  8.25642272442088E-13  8.45569039049758E-13
  2.99132510728046E-04  1.99284671645248E-04 -1.99284671453789E-04


 TIME STEP NUMBER   1  ------------------------------------------------------
 (initialisation period : icalls=4)

     iter   Etot(hartree)      deltaE(h)  residm     vres2    diffor    maxfor
 ETOT  1  -35.191563164193    -3.519E+01 3.377E-11 3.414E-04 7.624E-05 1.296E-03
 ETOT  2  -35.191564338363    -1.174E-06 7.167E-12 8.387E-06 1.166E-04 1.413E-03
 ETOT  3  -35.191564374813    -3.645E-08 3.980E-10 3.113E-07 1.382E-05 1.399E-03
 ETOT  4  -35.191564375578    -7.649E-10 4.064E-12 2.237E-08 6.149E-07 1.398E-03
 ETOT  5  -35.191564375629    -5.139E-11 2.063E-13 1.699E-09 7.198E-08 1.398E-03

 Cartesian components of stress tensor (hartree/bohr^3)
  sigma(1 1)=  3.74713969E-04  sigma(3 2)= -1.72482367E-06
  sigma(2 2)=  3.74694342E-04  sigma(3 1)=  1.16961287E-14
  sigma(3 3)=  3.74694342E-04  sigma(2 1)= -6.64216954E-15


 scprqt:  WARNING -
  nstep=    5 was not enough SCF cycles to converge;
  maximum residual=  2.063E-13 exceeds tolwfr=  1.000E-14

 bonds_lgth_angles : about to open file t29o_TIMD_GEO
 Cartesian coordinates (bohr)
  1.08531456502832E-02 -7.44409370338472E-11  4.31470138479537E-11
  2.56577750000000E+00  2.56577750000000E+00  2.56577750000000E+00
  0.00000000000000E+00  5.13155500000000E+00  5.13155500000000E+00
  2.56577750000000E+00  7.69733250000000E+00  7.69733250000000E+00
  5.13155500000000E+00  0.00000000000000E+00  5.13155500000000E+00
  7.69733250000000E+00  2.56577750000000E+00  7.69733250000000E+00
  5.13155500000000E+00  5.13155500000000E+00  0.00000000000000E+00
  7.69733250000000E+00  7.69733250000000E+00  2.56577750000000E+00
 Cartesian forces (hart/bohr); max,rms= 1.39810E-03 8.07196E-04 (free atoms)
 -1.39810399325096E-03  9.51272928477417E-12 -5.41843328261458E-12
  3.45280841180449E-04  2.32154244856670E-04  2.32154246072066E-04
 -1.83387634374070E-04 -7.09138705544570E-13  4.09464893815192E-13
  3.45280842534353E-04 -2.32154247754383E-04 -2.32154246540717E-04
  1.02783746915916E-04  1.25834746795872E-12  4.15201150963140E-13
  3.42681227490297E-04 -2.28189809709596E-04  2.28189809379415E-04
  1.02783746916929E-04 -7.09542497776894E-13 -7.29674002787567E-13
  3.42681222587081E-04  2.28189803254913E-04 -2.28189803587323E-04


 TIME STEP NUMBER   1  ------------------------------------------------------
 (initialisation period : icalls=5)

     iter   Etot(hartree)      deltaE(h)  residm     vres2    diffor    maxfor
 ETOT  1  -35.191564753461    -3.519E+01 4.972E-11 5.044E-04 9.261E-05 1.305E-03
 ETOT  2  -35.191566487518    -1.734E-06 1.056E-11 1.240E-05 1.416E-04 1.164E-03
 ETOT  3  -35.191566541373    -5.385E-08 5.880E-10 4.597E-07 1.677E-05 1.181E-03
 ETOT  4  -35.191566542502    -1.129E-09 5.998E-12 3.305E-08 7.516E-07 1.181E-03
 ETOT  5  -35.191566542578    -7.594E-11 3.031E-13 2.505E-09 8.709E-08 1.181E-03

 Cartesian components of stress tensor (hartree/bohr^3)
  sigma(1 1)=  3.74713948E-04  sigma(3 2)= -1.45807068E-06
  sigma(2 2)=  3.74699912E-04  sigma(3 1)= -6.83344032E-15
  sigma(3 3)=  3.74699912E-04  sigma(2 1)=  4.45125356E-15


 scprqt:  WARNING -
  nstep=    5 was not enough SCF cycles to converge;
  maximum residual=  3.031E-13 exceeds tolwfr=  1.000E-14

 bonds_lgth_angles : about to open file t29o_TIM1_GEO
 Cartesian coordinates (bohr)
  9.17306455944238E-03  4.35031760357997E-11 -2.87126739496544E-11
  2.56577750000000E+00  2.56577750000000E+00  2.56577750000000E+00
  0.00000000000000E+00  5.13155500000000E+00  5.13155500000000E+00
  2.56577750000000E+00  7.69733250000000E+00  7.69733250000000E+00
  5.13155500000000E+00  0.00000000000000E+00  5.13155500000000E+00
  7.69733250000000E+00  2.56577750000000E+00  7.69733250000000E+00
  5.13155500000000E+00  5.13155500000000E+00  0.00000000000000E+00
  7.69733250000000E+00  7.69733250000000E+00  2.56577750000000E+00
 Cartesian forces (hart/bohr); max,rms= 1.18149E-03 6.82133E-04 (free atoms)
 -1.18148870719938E-03 -5.56693882925046E-12  3.63254850711788E-12
  2.91654788568443E-04  1.95902110363633E-04  1.95902109617922E-04
 -1.55028825692624E-04  4.14743834174417E-13 -2.77148879464430E-13
  2.91654787929126E-04 -1.95902108822385E-04 -1.95902109568929E-04
  8.68084216968468E-05 -7.32944338778389E-13 -2.74267618443554E-13
  2.89795554987254E-04 -1.93067714473851E-04  1.93067714631545E-04
  8.68084216972995E-05  4.15063513137849E-13  4.84633095908450E-13
  2.89795558013031E-04  1.93067718402679E-04 -1.93067718246303E-04


 TIME STEP NUMBER   2  ------------------------------------------------------

     iter   Etot(hartree)      deltaE(h)  residm     vres2    diffor    maxfor
 ETOT  1  -35.191567032807    -3.519E+01 1.801E-11 1.804E-04 5.579E-05 1.126E-03
 ETOT  2  -35.191567654650    -6.218E-07 3.815E-12 4.413E-06 8.536E-05 1.040E-03
 ETOT  3  -35.191567673863    -1.921E-08 2.100E-10 1.646E-07 1.011E-05 1.050E-03
 ETOT  4  -35.191567674267    -4.046E-10 2.152E-12 1.180E-08 4.432E-07 1.051E-03
 ETOT  5  -35.191567674295    -2.711E-11 1.082E-13 9.030E-10 5.249E-08 1.051E-03

 Cartesian components of stress tensor (hartree/bohr^3)
  sigma(1 1)=  3.74713924E-04  sigma(3 2)= -1.29687187E-06
  sigma(2 2)=  3.74702822E-04  sigma(3 1)= -3.97717073E-15
  sigma(3 3)=  3.74702822E-04  sigma(2 1)=  2.54393476E-15


 scprqt:  WARNING -
  nstep=    5 was not enough SCF cycles to converge;
  maximum residual=  1.082E-13 exceeds tolwfr=  1.000E-14

 bonds_lgth_angles : about to open file t29o_TIM2_GEO
 Cartesian coordinates (bohr)
  8.15755449060009E-03  4.13180153700253E-11 -2.72917862117597E-11
  2.56577750000000E+00  2.56577750000000E+00  2.56577750000000E+00
  0.00000000000000E+00  5.13155500000000E+00  5.13155500000000E+00
  2.56577750000000E+00  7.69733250000000E+00  7.69733250000000E+00
  5.13155500000000E+00  0.00000000000000E+00  5.13155500000000E+00
  7.69733250000000E+00  2.56577750000000E+00  7.69733250000000E+00
  5.13155500000000E+00  5.13155500000000E+00  0.00000000000000E+00
  7.69733250000000E+00  7.69733250000000E+00  2.56577750000000E+00
 Velocities (bohr/(atomic time unit))
 -2.74325663661725E-06 -2.37360817362113E-14  1.58283061284855E-14
  0.00000000000000E+00  0.00000000000000E+00  0.00000000000000E+00
  0.00000000000000E+00  0.00000000000000E+00  0.00000000000000E+00
  0.00000000000000E+00  0.00000000000000E+00  0.00000000000000E+00
  0.00000000000000E+00  0.00000000000000E+00  0.00000000000000E+00
  0.00000000000000E+00  0.00000000000000E+00  0.00000000000000E+00
  0.00000000000000E+00  0.00000000000000E+00  0.00000000000000E+00
  0.00000000000000E+00  0.00000000000000E+00  0.00000000000000E+00
 Cartesian forces (hart/bohr); max,rms= 1.05094E-03 6.06763E-04 (free atoms)
 -1.05094417851784E-03 -3.22716409952748E-12  2.07044997575577E-12
  2.59331135386956E-04  1.74120130061244E-04  1.74120129628363E-04
 -1.37889952048378E-04  2.37748379641883E-13 -1.57781317666957E-13
  2.59331135006546E-04 -1.74120129151970E-04 -1.74120129585569E-04
  7.72254430096383E-05 -4.26599758560714E-13 -1.55064662915769E-13
  2.57860486206726E-04 -1.71877950503877E-04  1.71877950599008E-04
  7.72254430099317E-05  2.39337900701836E-13  2.77413164953882E-13
  2.57860487946418E-04  1.71877952771280E-04 -1.71877952676818E-04


 TIME STEP NUMBER   3  ------------------------------------------------------

     iter   Etot(hartree)      deltaE(h)  residm     vres2    diffor    maxfor
 ETOT  1  -35.191568059671    -3.519E+01 1.438E-11 1.445E-04 4.986E-05 1.001E-03
 ETOT  2  -35.191568557534    -4.979E-07 3.049E-12 3.539E-06 7.627E-05 9.248E-04
 ETOT  3  -35.191568572934    -1.540E-08 1.683E-10 1.318E-07 9.033E-06 9.339E-04
 ETOT  4  -35.191568573258    -3.240E-10 1.723E-12 9.456E-09 3.979E-07 9.343E-04
 ETOT  5  -35.191568573279    -2.174E-11 8.657E-14 7.221E-10 4.691E-08 9.343E-04

 Cartesian components of stress tensor (hartree/bohr^3)
  sigma(1 1)=  3.74713908E-04  sigma(3 2)= -1.15292275E-06
  sigma(2 2)=  3.74705134E-04  sigma(3 1)= -6.13742827E-15
  sigma(3 3)=  3.74705134E-04  sigma(2 1)=  4.01608625E-15


 scprqt:  WARNING -
  nstep=    5 was not enough SCF cycles to converge;
  maximum residual=  8.657E-14 exceeds tolwfr=  1.000E-14

 bonds_lgth_angles : about to open file t29o_TIM3_GEO
 Cartesian coordinates (bohr)
  7.25141802178760E-03  3.82752431356271E-11 -2.53274093986528E-11
  2.56577750000000E+00  2.56577750000000E+00  2.56577750000000E+00
  0.00000000000000E+00  5.13155500000000E+00  5.13155500000000E+00
  2.56577750000000E+00  7.69733250000000E+00  7.69733250000000E+00
  5.13155500000000E+00  0.00000000000000E+00  5.13155500000000E+00
  7.69733250000000E+00  2.56577750000000E+00  7.69733250000000E+00
  5.13155500000000E+00  5.13155500000000E+00  0.00000000000000E+00
  7.69733250000000E+00  7.69733250000000E+00  2.56577750000000E+00
 Velocities (bohr/(atomic time unit))
 -2.44022594055314E-06 -1.02597545488456E-14  6.67959838854221E-15
  0.00000000000000E+00  0.00000000000000E+00  0.00000000000000E+00
  0.00000000000000E+00  0.00000000000000E+00  0.00000000000000E+00
  0.00000000000000E+00  0.00000000000000E+00  0.00000000000000E+00
  0.00000000000000E+00  0.00000000000000E+00  0.00000000000000E+00
  0.00000000000000E+00  0.00000000000000E+00  0.00000000000000E+00
  0.00000000000000E+00  0.00000000000000E+00  0.00000000000000E+00
  0.00000000000000E+00  0.00000000000000E+00  0.00000000000000E+00
 Cartesian forces (hart/bohr); max,rms= 9.34297E-04 5.39417E-04 (free atoms)
 -9.34297250973398E-04 -4.98158048278568E-12  3.26832596110725E-12
  2.30474881722640E-04  1.54682743818338E-04  1.54682743146359E-04
 -1.22585302765223E-04  3.67998102237285E-13 -2.47014222601562E-13
  2.30474881159234E-04 -1.54682742441086E-04 -1.54682743114331E-04
  6.86538246487373E-05 -6.57457067455344E-13 -2.44608777107475E-13
  2.29312569424256E-04 -1.52910669223213E-04  1.52910669363432E-04
  6.86538246489987E-05  3.69674406888861E-13  4.35965787718920E-13
  2.29312572134755E-04  1.52910672747326E-04 -1.52910672608129E-04


 TIME STEP NUMBER   4  ------------------------------------------------------

     iter   Etot(hartree)      deltaE(h)  residm     vres2    diffor    maxfor
 ETOT  1  -35.191568877723    -3.519E+01 1.138E-11 1.144E-04 4.437E-05 8.899E-04
 ETOT  2  -35.191569271990    -3.943E-07 2.414E-12 2.802E-06 6.787E-05 8.221E-04
 ETOT  3  -35.191569284185    -1.220E-08 1.332E-10 1.044E-07 8.038E-06 8.301E-04
 ETOT  4  -35.191569284442    -2.565E-10 1.364E-12 7.488E-09 3.541E-07 8.304E-04
 ETOT  5  -35.191569284459    -1.717E-11 6.845E-14 5.780E-10 5.200E-08 8.305E-04

 Cartesian components of stress tensor (hartree/bohr^3)
  sigma(1 1)=  3.74713895E-04  sigma(3 2)= -1.02482907E-06
  sigma(2 2)=  3.74706962E-04  sigma(3 1)= -5.31888046E-15
  sigma(3 3)=  3.74706962E-04  sigma(2 1)=  3.48817731E-15


 scprqt:  WARNING -
  nstep=    5 was not enough SCF cycles to converge;
  maximum residual=  6.845E-14 exceeds tolwfr=  1.000E-14

 bonds_lgth_angles : about to open file t29o_TIM4_GEO
 Cartesian coordinates (bohr)
  6.44566080182041E-03  3.40927529155795E-11 -2.25844568812926E-11
  2.56577750000000E+00  2.56577750000000E+00  2.56577750000000E+00
  0.00000000000000E+00  5.13155500000000E+00  5.13155500000000E+00
  2.56577750000000E+00  7.69733250000000E+00  7.69733250000000E+00
  5.13155500000000E+00  0.00000000000000E+00  5.13155500000000E+00
  7.69733250000000E+00  2.56577750000000E+00  7.69733250000000E+00
  5.13155500000000E+00  5.13155500000000E+00  0.00000000000000E+00
  7.69733250000000E+00  7.69733250000000E+00  2.56577750000000E+00
 Velocities (bohr/(atomic time unit))
 -2.16926620175164E-06 -1.16993024242635E-14  7.68693175736451E-15
  0.00000000000000E+00  0.00000000000000E+00  0.00000000000000E+00
  0.00000000000000E+00  0.00000000000000E+00  0.00000000000000E+00
  0.00000000000000E+00  0.00000000000000E+00  0.00000000000000E+00
  0.00000000000000E+00  0.00000000000000E+00  0.00000000000000E+00
  0.00000000000000E+00  0.00000000000000E+00  0.00000000000000E+00
  0.00000000000000E+00  0.00000000000000E+00  0.00000000000000E+00
  0.00000000000000E+00  0.00000000000000E+00  0.00000000000000E+00
 Cartesian forces (hart/bohr); max,rms= 8.30502E-04 4.79491E-04 (free atoms)
 -8.30501988667823E-04 -4.31595328449099E-12  2.83521066590176E-12
  2.04811071594036E-04  1.37411764370126E-04  1.37411763787159E-04
 -1.08960701772423E-04  3.18504215585483E-13 -2.14259628380970E-13
  2.04811071107324E-04 -1.37411763177751E-04 -1.37411763761532E-04
  6.10275553043836E-05 -5.69408321211563E-13 -2.11355345387681E-13
  2.03892717389821E-04 -1.36011582250224E-04  1.36011582371834E-04
  6.10275553046518E-05  3.19593712614875E-13  3.77807717514066E-13
  2.03892719740030E-04  1.36011585305113E-04 -1.36011585184864E-04


 TIME STEP NUMBER   5  ------------------------------------------------------

     iter   Etot(hartree)      deltaE(h)  residm     vres2    diffor    maxfor
 ETOT  1  -35.191569525034    -3.519E+01 8.987E-12 9.043E-05 3.946E-05 7.910E-04
 ETOT  2  -35.191569836598    -3.116E-07 1.907E-12 2.215E-06 6.034E-05 7.307E-04
 ETOT  3  -35.191569846234    -9.636E-09 1.053E-10 8.254E-08 7.149E-06 7.379E-04
 ETOT  4  -35.191569846437    -2.029E-10 1.079E-12 5.921E-09 3.152E-07 7.382E-04
 ETOT  5  -35.191569846451    -1.351E-11 5.406E-14 4.520E-10 4.304E-08 7.382E-04

 Cartesian components of stress tensor (hartree/bohr^3)
  sigma(1 1)=  3.74713885E-04  sigma(3 2)= -9.10947677E-07
  sigma(2 2)=  3.74708407E-04  sigma(3 1)= -4.80133089E-15
  sigma(3 3)=  3.74708407E-04  sigma(2 1)=  3.15689196E-15


 scprqt:  WARNING -
  nstep=    5 was not enough SCF cycles to converge;
  maximum residual=  5.406E-14 exceeds tolwfr=  1.000E-14

 bonds_lgth_angles : about to open file t29o_TIM5_GEO
 Cartesian coordinates (bohr)
  5.72940491297902E-03  3.03625286856824E-11 -2.01332472261534E-11
  2.56577750000000E+00  2.56577750000000E+00  2.56577750000000E+00
  0.00000000000000E+00  5.13155500000000E+00  5.13155500000000E+00
  2.56577750000000E+00  7.69733250000000E+00  7.69733250000000E+00
  5.13155500000000E+00  0.00000000000000E+00  5.13155500000000E+00
  7.69733250000000E+00  2.56577750000000E+00  7.69733250000000E+00
  5.13155500000000E+00  5.13155500000000E+00  0.00000000000000E+00
  7.69733250000000E+00  7.69733250000000E+00  2.56577750000000E+00
 Velocities (bohr/(atomic time unit))
 -1.92823155752980E-06 -1.00871520271770E-14  6.63637495246897E-15
  0.00000000000000E+00  0.00000000000000E+00  0.00000000000000E+00
  0.00000000000000E+00  0.00000000000000E+00  0.00000000000000E+00
  0.00000000000000E+00  0.00000000000000E+00  0.00000000000000E+00
  0.00000000000000E+00  0.00000000000000E+00  0.00000000000000E+00
  0.00000000000000E+00  0.00000000000000E+00  0.00000000000000E+00
  0.00000000000000E+00  0.00000000000000E+00  0.00000000000000E+00
  0.00000000000000E+00  0.00000000000000E+00  0.00000000000000E+00
 Cartesian forces (hart/bohr); max,rms= 7.38214E-04 4.26208E-04 (free atoms)
 -7.38213938233873E-04 -3.89495299108203E-12  2.56515051370565E-12
  1.82007448350047E-04  1.22074710390139E-04  1.22074709863094E-04
 -9.68521017016569E-05  2.86614133946215E-13 -1.93631111283132E-13
  1.82007447912321E-04 -1.22074709315708E-04 -1.22074709843412E-04
  5.42436979790069E-05 -5.13548643727935E-13 -1.90737546724920E-13
  1.81281872796113E-04 -1.20968458898955E-04  1.20968459008141E-04
  5.42436979787978E-05  2.88233773601625E-13  3.41128753069139E-13
  1.81281874919245E-04  1.20968461658178E-04 -1.20968461549734E-04


 TIME STEP NUMBER   6  ------------------------------------------------------

     iter   Etot(hartree)      deltaE(h)  residm     vres2    diffor    maxfor
 ETOT  1  -35.191570036513    -3.519E+01 7.097E-12 7.146E-05 3.507E-05 7.031E-04
 ETOT  2  -35.191570282706    -2.462E-07 1.507E-12 1.750E-06 5.364E-05 6.495E-04
 ETOT  3  -35.191570290320    -7.614E-09 8.320E-11 6.522E-08 6.358E-06 6.559E-04
 ETOT  4  -35.191570290480    -1.602E-10 8.521E-13 4.679E-09 2.800E-07 6.561E-04
 ETOT  5  -35.191570290491    -1.088E-11 4.267E-14 3.570E-10 3.826E-08 6.562E-04

 Cartesian components of stress tensor (hartree/bohr^3)
  sigma(1 1)=  3.74713877E-04  sigma(3 2)= -8.09719632E-07
  sigma(2 2)=  3.74709549E-04  sigma(3 1)= -4.26781746E-15
  sigma(3 3)=  3.74709549E-04  sigma(2 1)=  2.80951517E-15


 scprqt:  WARNING -
  nstep=    5 was not enough SCF cycles to converge;
  maximum residual=  4.267E-14 exceeds tolwfr=  1.000E-14

 bonds_lgth_angles : about to open file t29o_TIM6_GEO
 Cartesian coordinates (bohr)
  5.09273927040464E-03  2.70060112861756E-11 -1.79224303451218E-11
  2.56577750000000E+00  2.56577750000000E+00  2.56577750000000E+00
  0.00000000000000E+00  5.13155500000000E+00  5.13155500000000E+00
  2.56577750000000E+00  7.69733250000000E+00  7.69733250000000E+00
  5.13155500000000E+00  0.00000000000000E+00  5.13155500000000E+00
  7.69733250000000E+00  2.56577750000000E+00  7.69733250000000E+00
  5.13155500000000E+00  5.13155500000000E+00  0.00000000000000E+00
  7.69733250000000E+00  7.69733250000000E+00  2.56577750000000E+00
 Velocities (bohr/(atomic time unit))
 -1.71395975655772E-06 -9.05110555599592E-15  5.96699125953324E-15
  0.00000000000000E+00  0.00000000000000E+00  0.00000000000000E+00
  0.00000000000000E+00  0.00000000000000E+00  0.00000000000000E+00
  0.00000000000000E+00  0.00000000000000E+00  0.00000000000000E+00
  0.00000000000000E+00  0.00000000000000E+00  0.00000000000000E+00
  0.00000000000000E+00  0.00000000000000E+00  0.00000000000000E+00
  0.00000000000000E+00  0.00000000000000E+00  0.00000000000000E+00
  0.00000000000000E+00  0.00000000000000E+00  0.00000000000000E+00
 Cartesian forces (hart/bohr); max,rms= 6.56183E-04 3.78847E-04 (free atoms)
 -6.56182778651817E-04 -3.46191318918012E-12  2.28350075160091E-12
  1.61746744759889E-04  1.08454763839324E-04  1.08454763370696E-04
 -8.60897770850826E-05  2.54784646868159E-13 -1.72387384548193E-13
  1.61746744372717E-04 -1.08454762885781E-04 -1.08454763354974E-04
  4.82160696151879E-05 -4.56050513099486E-13 -1.69583841577726E-13
  1.61173462742154E-04 -1.07580708835068E-04  1.07580708931539E-04
  4.82160696158008E-05  2.56029992407813E-13  3.03745178082268E-13
  1.61173464631152E-04  1.07580711288674E-04 -1.07580711192536E-04


 TIME STEP NUMBER   7  ------------------------------------------------------

     iter   Etot(hartree)      deltaE(h)  residm     vres2    diffor    maxfor
 ETOT  1  -35.191570440659    -3.519E+01 5.605E-12 5.646E-05 3.117E-05 6.250E-04
 ETOT  2  -35.191570635182    -1.945E-07 1.190E-12 1.383E-06 4.768E-05 5.773E-04
 ETOT  3  -35.191570641197    -6.016E-09 6.574E-11 5.153E-08 5.651E-06 5.830E-04
 ETOT  4  -35.191570641324    -1.265E-10 6.733E-13 3.697E-09 2.489E-07 5.832E-04
 ETOT  5  -35.191570641332    -8.463E-12 3.368E-14 2.796E-10 7.319E-08 5.833E-04

 Cartesian components of stress tensor (hartree/bohr^3)
  sigma(1 1)=  3.74713873E-04  sigma(3 2)= -7.19787138E-07
  sigma(2 2)=  3.74710452E-04  sigma(3 1)= -3.79996776E-15
  sigma(3 3)=  3.74710452E-04  sigma(2 1)=  2.50557442E-15


 scprqt:  WARNING -
  nstep=    5 was not enough SCF cycles to converge;
  maximum residual=  3.368E-14 exceeds tolwfr=  1.000E-14

 bonds_lgth_angles : about to open file t29o_TIM7_GEO
 Cartesian coordinates (bohr)
  4.52681444217402E-03  2.40195959423210E-11 -1.59524531266788E-11
  2.56577750000000E+00  2.56577750000000E+00  2.56577750000000E+00
  0.00000000000000E+00  5.13155500000000E+00  5.13155500000000E+00
  2.56577750000000E+00  7.69733250000000E+00  7.69733250000000E+00
  5.13155500000000E+00  0.00000000000000E+00  5.13155500000000E+00
  7.69733250000000E+00  2.56577750000000E+00  7.69733250000000E+00
  5.13155500000000E+00  5.13155500000000E+00  0.00000000000000E+00
  7.69733250000000E+00  7.69733250000000E+00  2.56577750000000E+00
 Velocities (bohr/(atomic time unit))
 -1.52355915626270E-06 -8.04571577492868E-15  5.31016206695647E-15
  0.00000000000000E+00  0.00000000000000E+00  0.00000000000000E+00
  0.00000000000000E+00  0.00000000000000E+00  0.00000000000000E+00
  0.00000000000000E+00  0.00000000000000E+00  0.00000000000000E+00
  0.00000000000000E+00  0.00000000000000E+00  0.00000000000000E+00
  0.00000000000000E+00  0.00000000000000E+00  0.00000000000000E+00
  0.00000000000000E+00  0.00000000000000E+00  0.00000000000000E+00
  0.00000000000000E+00  0.00000000000000E+00  0.00000000000000E+00
 Cartesian forces (hart/bohr); max,rms= 5.83305E-04 3.36772E-04 (free atoms)
 -5.83305433770417E-04 -3.08274632310461E-12  2.03521861461207E-12
  1.43750527835733E-04  9.63735756922078E-05  9.63735752750831E-05
 -7.65095563355226E-05  2.26729391013557E-13 -1.54061280284121E-13
  1.43750527491458E-04 -9.63735748440614E-05 -9.63735752613128E-05
  4.28588729463655E-05 -4.05907984084856E-13 -1.51020369506005E-13
  1.43298093601302E-04 -9.56827829246023E-05  9.56827830115539E-05
  4.28588729462011E-05  2.28156561936167E-13  2.70088617227332E-13
  1.43298095284880E-04  9.56827851102243E-05 -9.56827850255498E-05


 TIME STEP NUMBER   8  ------------------------------------------------------

     iter   Etot(hartree)      deltaE(h)  residm     vres2    diffor    maxfor
 ETOT  1  -35.191570759992    -3.519E+01 4.427E-12 4.462E-05 2.776E-05 5.555E-04
 ETOT  2  -35.191570913696    -1.537E-07 9.403E-13 1.093E-06 4.238E-05 5.132E-04
 ETOT  3  -35.191570918450    -4.754E-09 5.196E-11 4.078E-08 5.032E-06 5.182E-04
 ETOT  4  -35.191570918550    -1.002E-10 5.330E-13 2.924E-09 2.226E-07 5.184E-04
 ETOT  5  -35.191570918557    -6.665E-12 2.664E-14 2.265E-10 8.268E-08 5.185E-04

 Cartesian components of stress tensor (hartree/bohr^3)
  sigma(1 1)=  3.74713850E-04  sigma(3 2)= -6.39789054E-07
  sigma(2 2)=  3.74711146E-04  sigma(3 1)= -3.37998829E-15
  sigma(3 3)=  3.74711146E-04  sigma(2 1)=  2.23267532E-15


 scprqt:  WARNING -
  nstep=    5 was not enough SCF cycles to converge;
  maximum residual=  2.664E-14 exceeds tolwfr=  1.000E-14

 bonds_lgth_angles : about to open file t29o_TIM8_GEO
 Cartesian coordinates (bohr)
  4.02374796112050E-03  2.13608656245518E-11 -1.41968620210532E-11
  2.56577750000000E+00  2.56577750000000E+00  2.56577750000000E+00
  0.00000000000000E+00  5.13155500000000E+00  5.13155500000000E+00
  2.56577750000000E+00  7.69733250000000E+00  7.69733250000000E+00
  5.13155500000000E+00  0.00000000000000E+00  5.13155500000000E+00
  7.69733250000000E+00  2.56577750000000E+00  7.69733250000000E+00
  5.13155500000000E+00  5.13155500000000E+00  0.00000000000000E+00
  7.69733250000000E+00  7.69733250000000E+00  2.56577750000000E+00
 Velocities (bohr/(atomic time unit))
 -1.35432081345068E-06 -7.16088822138771E-15  4.73148611515664E-15
  0.00000000000000E+00  0.00000000000000E+00  0.00000000000000E+00
  0.00000000000000E+00  0.00000000000000E+00  0.00000000000000E+00
  0.00000000000000E+00  0.00000000000000E+00  0.00000000000000E+00
  0.00000000000000E+00  0.00000000000000E+00  0.00000000000000E+00
  0.00000000000000E+00  0.00000000000000E+00  0.00000000000000E+00
  0.00000000000000E+00  0.00000000000000E+00  0.00000000000000E+00
  0.00000000000000E+00  0.00000000000000E+00  0.00000000000000E+00
 Cartesian forces (hart/bohr); max,rms= 5.18499E-04 2.99356E-04 (free atoms)
 -5.18499210172718E-04 -2.74202849422388E-12  1.81276509964265E-12
  1.27752288703395E-04  8.56352400242941E-05  8.56352396531712E-05
 -6.80046885909327E-05  2.01642794914903E-13 -1.37303414389265E-13
  1.27752288397575E-04 -8.56352392708363E-05 -8.56352396423862E-05
  3.81043759838300E-05 -3.61003914030222E-13 -1.34145714096403E-13
  1.27395284097937E-04 -8.50894441599186E-05  8.50894442365070E-05
  3.81043759838327E-05  2.02847535119089E-13  2.41138355455216E-13
  1.27395285597081E-04  8.50894461050029E-05 -8.50894460297464E-05

================================================================================

 ----iterations are completed or convergence reached----

 Mean square residual over all n,k,spin=   1.1984E-14; max=  2.6644E-14
   0.2500  0.2500  0.2500    1  2.62389E-14 kpt; spin; max resid(k); each band:
 1.90E-14 2.27E-14 7.33E-15 1.08E-14 9.53E-15 6.75E-15 8.04E-15 1.24E-14
 2.62E-14 1.05E-14 7.71E-15 1.64E-14 8.11E-15 7.90E-15 9.27E-15 7.66E-15
  -0.2500  0.2500  0.2500    1  2.62389E-14 kpt; spin; max resid(k); each band:
 1.90E-14 2.27E-14 7.33E-15 1.08E-14 9.53E-15 6.75E-15 8.04E-15 1.24E-14
 2.62E-14 1.05E-14 7.71E-15 1.64E-14 8.11E-15 7.90E-15 9.27E-15 7.66E-15
   0.2500 -0.2500  0.2500    1  2.66442E-14 kpt; spin; max resid(k); each band:
 1.89E-14 1.06E-14 9.93E-15 2.31E-14 7.71E-15 6.70E-15 9.75E-15 1.24E-14
 7.70E-15 1.05E-14 2.66E-14 7.91E-15 8.03E-15 1.65E-14 7.56E-15 9.32E-15
   0.2500  0.2500 -0.2500    1  2.66442E-14 kpt; spin; max resid(k); each band:
 1.89E-14 1.06E-14 9.93E-15 2.31E-14 7.71E-15 6.70E-15 9.75E-15 1.24E-14
 7.70E-15 1.05E-14 2.66E-14 7.91E-15 8.03E-15 1.65E-14 7.56E-15 9.32E-15
 reduced coordinates (array xred) for    8 atoms
       0.000392059323      0.000000000002     -0.000000000001
       0.250000000000      0.250000000000      0.250000000000
       0.000000000000      0.500000000000      0.500000000000
       0.250000000000      0.750000000000      0.750000000000
       0.500000000000      0.000000000000      0.500000000000
       0.750000000000      0.250000000000      0.750000000000
       0.500000000000      0.500000000000      0.000000000000
       0.750000000000      0.750000000000      0.250000000000
 rms dE/dt=  1.3246E-03; max dE/dt=  5.3213E-03; dE/dt below (all hartree)
    1       0.005321295884      0.000000000028     -0.000000000019
    2      -0.001311254337     -0.000878883888     -0.000878883884
    3       0.000697821054     -0.000000000002      0.000000000001
    4      -0.001311254334      0.000878883881      0.000878883884
    5      -0.000391187947      0.000000000004      0.000000000001
    6      -0.001307590359      0.000873282325     -0.000873282326
    7      -0.000391187947     -0.000000000002     -0.000000000002
    8      -0.001307590375     -0.000873282345      0.000873282344

 cartesian coordinates (angstrom) at end:
    1      0.00212927571414     0.00000000001130    -0.00000000000751
    2      1.35775097531303     1.35775097531303     1.35775097531303
    3      0.00000000000000     2.71550195062606     2.71550195062606
    4      1.35775097531303     4.07325292593909     4.07325292593909
    5      2.71550195062606     0.00000000000000     2.71550195062606
    6      4.07325292593909     1.35775097531303     4.07325292593909
    7      2.71550195062606     2.71550195062606     0.00000000000000
    8      4.07325292593909     4.07325292593909     1.35775097531303

 cartesian forces (hartree/bohr) at end:
    1     -0.00051849921017    -0.00000000000274     0.00000000000181
    2      0.00012775228870     0.00008563524002     0.00008563523965
    3     -0.00006800468859     0.00000000000020    -0.00000000000014
    4      0.00012775228840    -0.00008563523927    -0.00008563523964
    5      0.00003810437598    -0.00000000000036    -0.00000000000013
    6      0.00012739528410    -0.00008508944416     0.00008508944424
    7      0.00003810437598     0.00000000000020     0.00000000000024
    8      0.00012739528560     0.00008508944611    -0.00008508944603
 frms,max,avg= 2.9935566E-04 5.1849921E-04   1.155E-08  0.000E+00  0.000E+00 h/b

 cartesian forces (eV/Angstrom) at end:
    1     -0.02666229915062    -0.00000000014100     0.00000000009322
    2      0.00656928626266     0.00440354072401     0.00440354070493
    3     -0.00349694139409     0.00000000001037    -0.00000000000706
    4      0.00656928624693    -0.00440354068527    -0.00440354070437
    5      0.00195940562974    -0.00000000001856    -0.00000000000690
    6      0.00655092834928    -0.00437547477458     0.00437547477852
    7      0.00195940562974     0.00000000001043     0.00000000001240
    8      0.00655092842636     0.00437547487460    -0.00437547487073
 frms,max,avg= 1.5393486E-02 2.6662299E-02   5.940E-07  0.000E+00  0.000E+00 e/A
 length scales= 10.263110000000 10.263110000000 10.263110000000 bohr
              =  5.431003901252  5.431003901252  5.431003901252 angstroms
 prteigrs : about to open file t29o_EIG
 Fermi (or HOMO) energy (hartree) =   0.18891   Average Vxc (hartree)=  -0.35270
 Eigenvalues (hartree) for nkpt=   4  k points:
 kpt#   1, nband= 16, wtk=  0.25000, kpt=  0.2500  0.2500  0.2500 (reduced coord)
  -0.18705  -0.11516  -0.11506  -0.11506  -0.01365  -0.01356  -0.01352   0.07377
   0.08407   0.08414   0.08415   0.13264   0.13266   0.13271   0.18880   0.18891
 kpt#   2, nband= 16, wtk=  0.25000, kpt= -0.2500  0.2500  0.2500 (reduced coord)
  -0.18705  -0.11516  -0.11506  -0.11506  -0.01365  -0.01356  -0.01352   0.07377
   0.08407   0.08414   0.08415   0.13264   0.13266   0.13271   0.18880   0.18891
 kpt#   3, nband= 16, wtk=  0.25000, kpt=  0.2500 -0.2500  0.2500 (reduced coord)
  -0.18706  -0.11512  -0.11512  -0.11501  -0.01367  -0.01363  -0.01355   0.07383
   0.08415   0.08416   0.08423   0.13260   0.13265   0.13266   0.18877   0.18888
 kpt#   4, nband= 16, wtk=  0.25000, kpt=  0.2500  0.2500 -0.2500 (reduced coord)
  -0.18706  -0.11512  -0.11512  -0.11501  -0.01367  -0.01363  -0.01355   0.07383
   0.08415   0.08416   0.08423   0.13260   0.13265   0.13266   0.18877   0.18888
 Fermi (or HOMO) energy (eV) =   5.14046   Average Vxc (eV)=  -9.59736
 Eigenvalues (   eV  ) for nkpt=   4  k points:
 kpt#   1, nband= 16, wtk=  0.25000, kpt=  0.2500  0.2500  0.2500 (reduced coord)
  -5.08996  -3.13375  -3.13088  -3.13081  -0.37134  -0.36911  -0.36782   2.00739
   2.28753   2.28965   2.28972   3.60933   3.60976   3.61109   5.13764   5.14046
 kpt#   2, nband= 16, wtk=  0.25000, kpt= -0.2500  0.2500  0.2500 (reduced coord)
  -5.08996  -3.13375  -3.13088  -3.13081  -0.37134  -0.36911  -0.36782   2.00739
   2.28753   2.28965   2.28972   3.60933   3.60976   3.61109   5.13764   5.14046
 kpt#   3, nband= 16, wtk=  0.25000, kpt=  0.2500 -0.2500  0.2500 (reduced coord)
  -5.09016  -3.13253  -3.13246  -3.12959  -0.37211  -0.37083  -0.36860   2.00904
   2.28992   2.29000   2.29212   3.60816   3.60950   3.60994   5.13679   5.13962
 kpt#   4, nband= 16, wtk=  0.25000, kpt=  0.2500  0.2500 -0.2500 (reduced coord)
  -5.09016  -3.13253  -3.13246  -3.12959  -0.37211  -0.37083  -0.36860   2.00904
   2.28992   2.29000   2.29212   3.60816   3.60950   3.60994   5.13679   5.13962
 Total charge density [el/Bohr^3]
,     Maximum=    8.8115E-02  at reduced coord.    0.1250    0.8750    0.8750
,Next maximum=    8.8115E-02  at reduced coord.    0.1250    0.1250    0.1250
,     Minimum=    3.4744E-03  at reduced coord.    0.7500    0.2500    0.2500
,Next minimum=    3.4744E-03  at reduced coord.    0.7500    0.7500    0.7500

--------------------------------------------------------------------------------
 Components of total free energy (in Hartree) :

    Kinetic energy  =  1.16819747359643E+01
    Hartree energy  =  2.12455704635341E+00
    XC energy       = -1.41070086286908E+01
    Ewald energy    = -3.35916733568949E+01
    PspCore energy  =  3.39557039532177E-01
    Loc. psp. energy= -9.85492924794907E+00
    NL   psp  energy=  8.21595149312792E+00
    >>>>>>>>> Etotal= -3.51915709185571E+01

 Other information on the energy :
    Total energy(eV)= -9.57611344901269E+02 ; Band energy (Ha)=   1.0575617394E+00
--------------------------------------------------------------------------------
 rms coord change=  1.2410E-04   atom, delta coord (reduced):
     1       -0.000607940677      0.000000000002     -0.000000000001
     2        0.000000000000      0.000000000000      0.000000000000
     3        0.000000000000      0.000000000000      0.000000000000
     4        0.000000000000      0.000000000000      0.000000000000
     5        0.000000000000      0.000000000000      0.000000000000
     6        0.000000000000      0.000000000000      0.000000000000
     7        0.000000000000      0.000000000000      0.000000000000
     8        0.000000000000      0.000000000000      0.000000000000

 Cartesian components of stress tensor (hartree/bohr^3)
  sigma(1 1)=  3.74713850E-04  sigma(3 2)= -6.39789054E-07
  sigma(2 2)=  3.74711146E-04  sigma(3 1)= -3.37998829E-15
  sigma(3 3)=  3.74711146E-04  sigma(2 1)=  2.23267532E-15

-Cartesian components of stress tensor (GPa)         [Pressure= -1.1024E+01 GPa]
- sigma(1 1)=  1.10244602E+01  sigma(3 2)= -1.88232407E-02
- sigma(2 2)=  1.10243807E+01  sigma(3 1)= -9.94426721E-11
- sigma(3 3)=  1.10243807E+01  sigma(2 1)=  6.56875647E-11

== END DATASET(S) ==============================================================
================================================================================
  
 -outvars: echo values of variables after computation  --------
     acell    1.0263110000E+01  1.0263110000E+01  1.0263110000E+01 Bohr
       amu    2.80000000E+01
    diemac    1.20000000E+01
     dtion    3.50000000E+02
      ecut    2.99000000E+00 Hartree
    enunit         2
    etotal   -3.5191570919E+01
     fcart   -5.1849921017E-04 -2.7420284942E-12  1.8127650996E-12
              1.2775228870E-04  8.5635240024E-05  8.5635239653E-05
             -6.8004688591E-05  2.0164279491E-13 -1.3730341439E-13
              1.2775228840E-04 -8.5635239271E-05 -8.5635239642E-05
              3.8104375984E-05 -3.6100391403E-13 -1.3414571410E-13
              1.2739528410E-04 -8.5089444160E-05  8.5089444237E-05
              3.8104375984E-05  2.0284753512E-13  2.4113835546E-13
              1.2739528560E-04  8.5089446105E-05 -8.5089446030E-05
    iatfix      2    3    4    5    6    7    8
     intxc         1
    ionmov         1
    iprcch         1
    irdwfk         1
      iscf         3
       kpt    1.00000000E+00  1.00000000E+00  1.00000000E+00
             -1.00000000E+00  1.00000000E+00  1.00000000E+00
              1.00000000E+00 -1.00000000E+00  1.00000000E+00
              1.00000000E+00  1.00000000E+00 -1.00000000E+00
    kptnrm    4.00000000E+00
P    mkmem         4
    natfix         7
     natom         8
     nband        16
     ngfft        16      16      16
      nkpt         4
     nline         3
     nstep         5
      nsym         1
     ntime         8
    ntypat         1
       occ    2.000000  2.000000  2.000000  2.000000  2.000000  2.000000
              2.000000  2.000000  2.000000  2.000000  2.000000  2.000000
              2.000000  2.000000  2.000000  2.000000
    occopt         0
    prtgeo         4
   spgroup         1
    strten    3.7471384976E-04  3.7471114606E-04  3.7471114602E-04
             -6.3978905440E-07 -3.3799882934E-15  2.2326753205E-15
    tolmxf    1.00000000E-05
    tolwfr    1.00000000E-14
     typat    1  1  1  1  1  1  1  1
       vel   -1.3543208135E-06 -7.1608882214E-15  4.7314861152E-15
              0.0000000000E+00  0.0000000000E+00  0.0000000000E+00
              0.0000000000E+00  0.0000000000E+00  0.0000000000E+00
              0.0000000000E+00  0.0000000000E+00  0.0000000000E+00
              0.0000000000E+00  0.0000000000E+00  0.0000000000E+00
              0.0000000000E+00  0.0000000000E+00  0.0000000000E+00
              0.0000000000E+00  0.0000000000E+00  0.0000000000E+00
              0.0000000000E+00  0.0000000000E+00  0.0000000000E+00
       vis    4.00000000E+02
       wtk      0.25000    0.25000    0.25000    0.25000
    xangst    2.1292757141E-03  1.1303683244E-11 -7.5126558150E-12
              1.3577509753E+00  1.3577509753E+00  1.3577509753E+00
              0.0000000000E+00  2.7155019506E+00  2.7155019506E+00
              1.3577509753E+00  4.0732529259E+00  4.0732529259E+00
              2.7155019506E+00  0.0000000000E+00  2.7155019506E+00
              4.0732529259E+00  1.3577509753E+00  4.0732529259E+00
              2.7155019506E+00  2.7155019506E+00  0.0000000000E+00
              4.0732529259E+00  4.0732529259E+00  1.3577509753E+00
     xcart    4.0237479611E-03  2.1360865625E-11 -1.4196862021E-11
              2.5657775000E+00  2.5657775000E+00  2.5657775000E+00
              0.0000000000E+00  5.1315550000E+00  5.1315550000E+00
              2.5657775000E+00  7.6973325000E+00  7.6973325000E+00
              5.1315550000E+00  0.0000000000E+00  5.1315550000E+00
              7.6973325000E+00  2.5657775000E+00  7.6973325000E+00
              5.1315550000E+00  5.1315550000E+00  0.0000000000E+00
              7.6973325000E+00  7.6973325000E+00  2.5657775000E+00
      xred    3.9205932326E-04  2.0813248250E-12 -1.3832904472E-12
              2.5000000000E-01  2.5000000000E-01  2.5000000000E-01
              0.0000000000E+00  5.0000000000E-01  5.0000000000E-01
              2.5000000000E-01  7.5000000000E-01  7.5000000000E-01
              5.0000000000E-01  0.0000000000E+00  5.0000000000E-01
              7.5000000000E-01  2.5000000000E-01  7.5000000000E-01
              5.0000000000E-01  5.0000000000E-01  0.0000000000E+00
              7.5000000000E-01  7.5000000000E-01  2.5000000000E-01
     znucl     14.00000

================================================================================

- Total cpu        time (s,m,h):         10.9        0.18      0.003
- Total wall clock time (s,m,h):         10.9        0.18      0.003

- For major independent code sections, cpu and wall times (sec),
- as well as % of the total time and number of calls 

- routine                 cpu     %       wall     %      number of calls 
-                                                          (-1=no count)
- fourwf(pot)            3.943  36.1      3.925  35.9          19862
- nonlop(apply)          1.270  11.6      1.269  11.6          19862
- vtowfk(ssdiag)         1.115  10.2      1.114  10.2             -1
- projbd                 1.033   9.5      1.078   9.9          29612
- status                 0.597   5.5      0.592   5.4           5065
- fourwf(den)            0.413   3.8      0.404   3.7           3648
- timing timab           0.361   3.3      0.362   3.3             11
- nonlop(forces)         0.316   2.9      0.337   3.1           3584
- getghc-other           0.284   2.6      0.335   3.1             -1
- pspini                 0.225   2.1      0.225   2.1              1
- forces                 0.203   1.9      0.208   1.9             56
- ewald                  0.190   1.7      0.189   1.7             12
- stress                 0.141   1.3      0.142   1.3             12
- invars2                0.113   1.0      0.113   1.0              1
- ewald2                 0.111   1.0      0.113   1.0             12
- mkcore                 0.097   0.9      0.097   0.9             80
- nonlop(forstr)         0.085   0.8      0.087   0.8            768
- vtowfk(contrib)        0.083   0.8      0.069   0.6            224
- xc:pot/=fourdp         0.069   0.6      0.072   0.7             68
- fourdp                 0.069   0.6      0.062   0.6            519
- 50   others            0.107   1.0      0.106   1.0

- subtotal              10.825  99.0     10.899  99.7

================================================================================

 Calculation completed.
.Delivered   16 WARNINGs and   1 COMMENTs to log file.
+Overall time at end (sec) : cpu=         10.9  wall=         10.9
