
.Version 5.6.3  of ABINIT 
.(sequential version, prepared for a x86_64_linux_gcc4.3 computer) 

.Copyright (C) 1998-2008 ABINIT group . 
 ABINIT comes with ABSOLUTELY NO WARRANTY.
 It is free software, and you are welcome to redistribute it
 under certain conditions (GNU General Public License,
 see ~abinit/COPYING or http://www.gnu.org/copyleft/gpl.txt).

 ABINIT is a project of the Universite Catholique de Louvain,
 Corning Inc. and other collaborators, see ~abinit/doc/developers/contributors.txt .
 Please read ~abinit/doc/users/acknowledgments.html for suggested
 acknowledgments of the ABINIT effort.
 For more information, see http://www.abinit.org .

.Starting date : Thu  6 Nov 2008.
  
- input  file    -> /home/gonze/ABINIT/ABINITv5.6.3/test_gcc43/5.6.3-private/tests/v1/Input/t08.in
- output file    -> t08.out
- root for input  files -> t08i
- root for output files -> t08o


 Symmetries : space group P1 (#  1); Bravais aP (primitive triclinic)
================================================================================
 Values of the parameters that define the memory need of the present run
   intxc =         0  ionmov =         0    iscf =         5 xclevel =         1
  lmnmax =         1   lnmax =         1   mband =         8  mffmem =         1
P  mgfft =        32   mkmem =         1 mpssoang=         2     mpw =       562
  mqgrid =      3001   natom =         2    nfft =     18432    nkpt =         1
  nloalg =         4  nspden =         2 nspinor =         1  nsppol =         2
    nsym =         1  n1xccc =      2501  ntypat =         1  occopt =         4
================================================================================
P This job should need less than                       7.355 Mbytes of memory.
  Rough estimation (10% accuracy) of disk space for files :
  WF disk file :      0.139 Mbytes ; DEN or POT disk file :      0.283 Mbytes.
================================================================================

 -outvars: echo values of preprocessed input variables --------
     acell    7.0000000000E+00  7.0000000000E+00  9.0000000000E+00 Bohr
       amu    1.59994000E+01
    diemac    1.00000000E+00
    diemix    3.33333333E-01
      ecut    1.40000000E+01 Hartree
      iscf         5
    isecur        -2
    istwfk      2
P    mkmem         1
     natom         2
     nband         8
     ngfft        24      24      32
      nkpt         1
    nspden         2
    nsppol         2
      nsym         1
    ntypat         1
       occ    1.000000  1.000000  1.000000  1.000000  1.000000  1.000000
              0.000000  0.000000
              1.000000  1.000000  1.000000  1.000000  1.000000  1.000000
              0.000000  0.000000
    occopt         4
   spgroup         1
    spinat    0.0000000000E+00  0.0000000000E+00  1.0000000000E+00
              0.0000000000E+00  0.0000000000E+00  1.0000000000E+00
    toldfe    1.00000000E-07 Hartree
     typat    1  1
    xangst    0.0000000000E+00  0.0000000000E+00  5.5000000000E-01
              0.0000000000E+00  0.0000000000E+00 -5.5000000000E-01
     xcart    0.0000000000E+00  0.0000000000E+00  1.0393493731E+00
              0.0000000000E+00  0.0000000000E+00 -1.0393493731E+00
      xred    0.0000000000E+00  0.0000000000E+00  1.1548326368E-01
              0.0000000000E+00  0.0000000000E+00 -1.1548326368E-01
     znucl      8.00000

================================================================================

 chkinp: Checking input parameters for consistency.

================================================================================
== DATASET  1 ==================================================================

 Real(R)+Recip(G) space primitive vectors, cartesian coordinates (Bohr,Bohr^-1):
 R(1)=  7.0000000  0.0000000  0.0000000  G(1)=  0.1428571  0.0000000  0.0000000
 R(2)=  0.0000000  7.0000000  0.0000000  G(2)=  0.0000000  0.1428571  0.0000000
 R(3)=  0.0000000  0.0000000  9.0000000  G(3)=  0.0000000  0.0000000  0.1111111
 Unit cell volume ucvol=  4.4100000E+02 bohr^3
 Angles (23,13,12)=  9.00000000E+01  9.00000000E+01  9.00000000E+01 degrees

 getcut: wavevector=  0.0000  0.0000  0.0000  ngfft=  24  24  32
         ecut(hartree)=     14.000   => boxcut(ratio)=   2.03556

--- Pseudopotential description ------------------------------------------------
- pspini: atom type   1  psp file is /home/gonze/ABINIT/ABINITv5.6.3/test_gcc43/5.6.3-private/tests/Psps_for_tests/8o.pspnc
- pspatm: opening atomic psp file    /home/gonze/ABINIT/ABINITv5.6.3/test_gcc43/5.6.3-private/tests/Psps_for_tests/8o.pspnc
  Troullier-Martins psp for element  O         Thu Oct 27 17:29:57 EDT 1994
   8.00000   6.00000    940714                znucl, zion, pspdat
    1    1    1    1      2001   0.00000      pspcod,pspxc,lmax,lloc,mmax,r2well
    0   5.480  16.893    1   1.4482335        l,e99.0,e99.9,nproj,rcpsp
   0.00000000   0.00000000   0.00000000   0.00000000     rms, ekb1, ekb2, epsatm
    1  20.911  28.075    0   1.4482335        l,e99.0,e99.9,nproj,rcpsp
   0.00000000   0.00000000   0.00000000   0.00000000     rms, ekb1, ekb2, epsatm
    0.56990156784787    3.95561236318184    0.63894027514378   rchrg,fchrg,qchrg
 pspatm: epsatm=    1.57752239
         --- l  ekb(1:nproj) -->
             0    5.670783
 pspatm: atomic psp has been read  and splines computed

   3.78605374E+01                                ecore*ucvol(ha*bohr**3)
--------------------------------------------------------------------------------

P newkpt: treating      8 bands with npw=     562 for ikpt=   1
P newkpt: treating      8 bands with npw=     562 for ikpt=   1

 setup2: Arith. and geom. avg. npw (full set) are    1123.000    1123.000

================================================================================

     iter   Etot(hartree)     deltaE(h) residm    vres2   diffor   maxfor   magn
 ETOT  1  -31.719268061484    -3.17E+01 1.17E-02 5.94E+02 7.9E-01 7.90E-01 1.152
 ETOT  2  -32.086747953898    -3.67E-01 3.51E-04 1.63E+01 1.1E-01 6.83E-01 1.700
 ETOT  3  -32.091062905969    -4.31E-03 1.37E-04 5.29E+00 4.0E-02 6.43E-01 1.797
 ETOT  4  -32.091265485031    -2.03E-04 1.10E-05 3.74E+00 3.2E-03 6.40E-01 1.821
 ETOT  5  -32.092508343333    -1.24E-03 4.87E-05 1.30E+00 2.4E-02 6.16E-01 1.886
 ETOT  6  -32.092850720448    -3.42E-04 8.49E-05 3.18E-01 3.7E-02 5.79E-01 1.945
 ETOT  7  -32.093112257498    -2.62E-04 8.93E-06 4.74E-02 1.5E-02 5.94E-01 1.967
 ETOT  8  -32.093125300251    -1.30E-05 3.92E-06 1.35E-01 1.5E-03 5.92E-01 1.988
 ETOT  9  -32.093131043720    -5.74E-06 1.58E-07 1.13E-01 1.6E-03 5.90E-01 1.985
 ETOT 10  -32.093169161632    -3.81E-05 3.06E-06 2.79E-02 8.7E-03 5.99E-01 1.987
 ETOT 11  -32.093170435542    -1.27E-06 1.37E-07 2.77E-02 1.8E-03 6.01E-01 1.989
 ETOT 12  -32.093173753922    -3.32E-06 3.29E-07 7.22E-03 1.6E-04 6.01E-01 1.990
 ETOT 13  -32.093175271524    -1.52E-06 1.10E-07 1.10E-03 1.8E-04 6.01E-01 1.990
 ETOT 14  -32.093175474725    -2.03E-07 7.37E-09 5.48E-05 4.0E-05 6.01E-01 1.990
 ETOT 15  -32.093175489242    -1.45E-08 1.07E-09 1.20E-05 1.4E-04 6.01E-01 1.990
 ETOT 16  -32.093175491673    -2.43E-09 2.77E-10 3.21E-06 4.8E-05 6.01E-01 1.990

 At SCF step   16, etot is converged :
  for the second time, diff in etot=  2.431E-09 < toldfe=  1.000E-07

 Cartesian components of stress tensor (hartree/bohr^3)
  sigma(1 1)=  3.69497140E-03  sigma(3 2)= -4.54406559E-10
  sigma(2 2)=  3.69496813E-03  sigma(3 1)= -8.21165808E-10
  sigma(3 3)=  1.10646547E-03  sigma(2 1)=  7.40982738E-10

================================================================================

 ----iterations are completed or convergence reached----

 Mean square residual over all n,k,spin=   1.2504E-10; max=  2.7678E-10
   0.0000  0.0000  0.0000    1  2.76784E-10 kpt; spin; max resid(k); each band:
 2.68E-10 1.64E-10 1.09E-10 1.32E-10 2.77E-10 1.09E-10 1.32E-10 3.25E-11
   0.0000  0.0000  0.0000    2  1.44259E-10 kpt; spin; max resid(k); each band:
 7.00E-11 1.44E-10 1.25E-10 9.14E-11 9.20E-11 9.20E-11 9.30E-11 6.97E-11
 reduced coordinates (array xred) for    2 atoms
       0.000000000000      0.000000000000      0.115483263676
       0.000000000000      0.000000000000     -0.115483263676
 rms dE/dt=  3.1219E+00; max dE/dt=  5.4074E+00; dE/dt below (all hartree)
    1      -0.000002405857      0.000004439237     -5.407353163497
    2       0.000001479101     -0.000004870369      5.407351813220

 cartesian coordinates (angstrom) at end:
    1      0.00000000000000     0.00000000000000     0.55000000000000
    2      0.00000000000000     0.00000000000000    -0.55000000000000

 cartesian forces (hartree/bohr) at end:
    1      0.00000027749699    -0.00000066497186     0.60081694315096
    2     -0.00000027749699     0.00000066497186    -0.60081694315096
 frms,max,avg= 3.4688182E-01 6.0081694E-01   6.620E-08  3.080E-08  7.502E-08 h/b

 cartesian forces (eV/Angstrom) at end:
    1      0.00001426946797    -0.00003419422518    30.89524681766785
    2     -0.00001426946797     0.00003419422518   -30.89524681766785
 frms,max,avg= 1.7837379E+01 3.0895247E+01   3.404E-06  1.584E-06  3.857E-06 e/A
 length scales=  7.000000000000  7.000000000000  9.000000000000 bohr
              =  3.704240460130  3.704240460130  4.762594877310 angstroms
 prteigrs : about to open file t08o_EIG
 Fermi (or HOMO) energy (hartree) =  -0.02393   Average Vxc (hartree)=  -0.19433
 Magnetisation (Bohr magneton)=  1.99016968E+00
 Total spin up =  6.99508484E+00   Total spin down =  5.00491516E+00
 Eigenvalues (hartree) for nkpt=   1  k points, SPIN UP:
 kpt#   1, nband=  8, wtk=  1.00000, kpt=  0.0000  0.0000  0.0000 (reduced coord)
  -1.25444  -0.67158  -0.40861  -0.40861  -0.39845  -0.05536  -0.05535   0.05376
      occupation numbers for kpt#   1
   1.00000   1.00000   1.00000   1.00000   1.00000   0.99636   0.99636   0.00237
 Eigenvalues (hartree) for nkpt=   1  k points, SPIN DOWN:
 kpt#   1, nband=  8, wtk=  1.00000, kpt=  0.0000  0.0000  0.0000 (reduced coord)
  -1.20852  -0.60694  -0.35595  -0.34671  -0.34671   0.01882   0.01882   0.06370
      occupation numbers for kpt#   1
   1.00000   1.00000   1.00000   1.00000   1.00000   0.00170   0.00170   0.00151
 Total charge density [el/Bohr^3]
,     Maximum=    8.4204E-01  at reduced coord.    0.0000    0.0000    0.0000
,Next maximum=    8.2445E-01  at reduced coord.    0.0000    0.0000    0.9688
,     Minimum=    1.9344E-05  at reduced coord.    0.5000    0.5000    0.5625
,Next minimum=    1.9345E-05  at reduced coord.    0.5000    0.5000    0.4375
 Spin up density      [el/Bohr^3]
,     Maximum=    5.0965E-01  at reduced coord.    0.0000    0.9167    0.8750
,Next maximum=    5.0965E-01  at reduced coord.    0.0000    0.0833    0.8750
,     Minimum=    1.0294E-05  at reduced coord.    0.2917    0.5000    0.5000
,Next minimum=    1.0294E-05  at reduced coord.    0.7083    0.5000    0.5000
 Spin down density    [el/Bohr^3]
,     Maximum=    4.2271E-01  at reduced coord.    0.0000    0.0000    0.0000
,Next maximum=    4.1296E-01  at reduced coord.    0.0000    0.0000    0.9688
,     Minimum=    9.0196E-06  at reduced coord.    0.5000    0.5000    0.5625
,Next minimum=    9.0197E-06  at reduced coord.    0.5000    0.5000    0.4375
 Magnetization (spin up - spin down) [el/Bohr^3]
,     Maximum=    2.1240E-01  at reduced coord.    0.0417    0.0833    0.1250
,Next maximum=    2.1239E-01  at reduced coord.    0.9583    0.0833    0.1250
,     Minimum=   -3.3843E-03  at reduced coord.    0.0000    0.0000    0.0000
,Next minimum=   -3.0676E-03  at reduced coord.    0.9583    0.0000    0.0000
 Relative magnetization (=zeta, between -1 and 1)
,     Maximum=    3.5957E-01  at reduced coord.    0.7500    0.7083    0.2188
,Next maximum=    3.5957E-01  at reduced coord.    0.7083    0.7500    0.2188
,     Minimum=   -1.7882E-01  at reduced coord.    0.5000    0.8333    0.5000
,Next minimum=   -1.7882E-01  at reduced coord.    0.5000    0.1667    0.5000

--------------------------------------------------------------------------------
 Components of total free energy (in Hartree) :

    Kinetic energy  =  2.00509305016671E+01
    Hartree energy  =  1.82607539185118E+01
    XC energy       = -8.10973181262426E+00
    Ewald energy    = -8.65257592874657E+00
    PspCore energy  =  8.58515587537110E-02
    Loc. psp. energy= -5.83800280967694E+01
    NL   psp  energy=  4.64757072924367E+00
    >>>>> Internal E= -3.20972291299639E+01

    -kT*entropy     =  4.05363829139226E-03
    >>>>>>>>> Etotal= -3.20931754916726E+01

 Other information on the energy :
    Total energy(eV)= -8.73299717590246E+02 ; Band energy (Ha)=  -6.1165488909E+00
--------------------------------------------------------------------------------

 Cartesian components of stress tensor (hartree/bohr^3)
  sigma(1 1)=  3.69497140E-03  sigma(3 2)= -4.54406559E-10
  sigma(2 2)=  3.69496813E-03  sigma(3 1)= -8.21165808E-10
  sigma(3 3)=  1.10646547E-03  sigma(2 1)=  7.40982738E-10

-Cartesian components of stress tensor (GPa)         [Pressure= -8.3324E+01 GPa]
- sigma(1 1)=  1.08709793E+02  sigma(3 2)= -1.33691003E-05
- sigma(2 2)=  1.08709697E+02  sigma(3 1)= -2.41595281E-05
- sigma(3 3)=  3.25533325E+01  sigma(2 1)=  2.18004611E-05

== END DATASET(S) ==============================================================
================================================================================
  
 -outvars: echo values of variables after computation  --------
     acell    7.0000000000E+00  7.0000000000E+00  9.0000000000E+00 Bohr
       amu    1.59994000E+01
    diemac    1.00000000E+00
    diemix    3.33333333E-01
      ecut    1.40000000E+01 Hartree
    etotal   -3.2093175492E+01
     fcart    2.7749699423E-07 -6.6497186339E-07  6.0081694315E-01
             -2.7749699423E-07  6.6497186339E-07 -6.0081694315E-01
      iscf         5
    isecur        -2
    istwfk      2
P    mkmem         1
     natom         2
     nband         8
     ngfft        24      24      32
      nkpt         1
    nspden         2
    nsppol         2
      nsym         1
    ntypat         1
       occ    1.000000  1.000000  1.000000  1.000000  1.000000  0.996359
              0.996356  0.002370
              1.000000  1.000000  1.000000  1.000000  1.000000  0.001702
              0.001701  0.001512
    occopt         4
   spgroup         1
    spinat    0.0000000000E+00  0.0000000000E+00  1.0000000000E+00
              0.0000000000E+00  0.0000000000E+00  1.0000000000E+00
    strten    3.6949713988E-03  3.6949681285E-03  1.1064654674E-03
             -4.5440655940E-10 -8.2116580802E-10  7.4098273825E-10
    toldfe    1.00000000E-07 Hartree
     typat    1  1
    xangst    0.0000000000E+00  0.0000000000E+00  5.5000000000E-01
              0.0000000000E+00  0.0000000000E+00 -5.5000000000E-01
     xcart    0.0000000000E+00  0.0000000000E+00  1.0393493731E+00
              0.0000000000E+00  0.0000000000E+00 -1.0393493731E+00
      xred    0.0000000000E+00  0.0000000000E+00  1.1548326368E-01
              0.0000000000E+00  0.0000000000E+00 -1.1548326368E-01
     znucl      8.00000

================================================================================

- Total cpu        time (s,m,h):          2.3        0.04      0.001
- Total wall clock time (s,m,h):          2.3        0.04      0.001

- For major independent code sections, cpu and wall times (sec),
- as well as % of the total time and number of calls 

- routine                 cpu     %       wall     %      number of calls 
-                                                          (-1=no count)
- fourwf(pot)            0.798  34.7      0.800  34.8           1383
- timing timab           0.358  15.6      0.358  15.6             11
- xc:pot/=fourdp         0.139   6.0      0.138   6.0             17
- pspini                 0.127   5.5      0.127   5.5              1
- vtorho(4)-mkrho-       0.118   5.1      0.122   5.3             32
- invars2                0.103   4.5      0.103   4.5              1
- fourwf(den)            0.084   3.7      0.081   3.5            256
- forces                 0.061   2.7      0.065   2.8             16
- projbd                 0.060   2.6      0.056   2.4           2190
- nonlop(apply)          0.034   1.5      0.038   1.7           1383
- fourdp                 0.030   1.3      0.016   0.7             36
- abinit(2)              0.030   1.3      0.030   1.3              1
- mkrho/=                0.028   1.2      0.032   1.4             32
- vtowfk(ssdiag)         0.027   1.2      0.029   1.3             -1
- getghc-other           0.025   1.1      0.021   0.9             -1
- vtorho  (1)            0.015   0.7      0.005   0.2             16
- vtorho-kpt loop        0.008   0.3      0.012   0.5             32
- 53   others            0.052   2.3      0.056   2.4

- subtotal               2.097  91.3      2.089  90.9

================================================================================

 Calculation completed.
.Delivered    1 WARNINGs and   1 COMMENTs to log file.
+Overall time at end (sec) : cpu=          2.3  wall=          2.3
