
.Version 5.6.3  of ABINIT 
.(sequential version, prepared for a x86_64_linux_gcc4.3 computer) 

.Copyright (C) 1998-2008 ABINIT group . 
 ABINIT comes with ABSOLUTELY NO WARRANTY.
 It is free software, and you are welcome to redistribute it
 under certain conditions (GNU General Public License,
 see ~abinit/COPYING or http://www.gnu.org/copyleft/gpl.txt).

 ABINIT is a project of the Universite Catholique de Louvain,
 Corning Inc. and other collaborators, see ~abinit/doc/developers/contributors.txt .
 Please read ~abinit/doc/users/acknowledgments.html for suggested
 acknowledgments of the ABINIT effort.
 For more information, see http://www.abinit.org .

.Starting date : Thu  6 Nov 2008.
  
- input  file    -> /home/gonze/ABINIT/ABINITv5.6.3/test_gcc43/5.6.3-private/tests/v1/Input/t09.in
- output file    -> t09.out
- root for input  files -> t09i
- root for output files -> t09o


 Symmetries : space group P1 (#  1); Bravais aP (primitive triclinic)
================================================================================
 Values of the parameters that define the memory need of the present run
   intxc =         0  ionmov =         0    iscf =         5 xclevel =         1
  lmnmax =         1   lnmax =         1   mband =         8  mffmem =         1
P  mgfft =        32   mkmem =         1 mpssoang=         2     mpw =       562
  mqgrid =      3001   natom =         2    nfft =     18432    nkpt =         1
  nloalg =         4  nspden =         2 nspinor =         1  nsppol =         2
    nsym =         1  n1xccc =      2501  ntypat =         1  occopt =         2
================================================================================
P This job should need less than                       6.623 Mbytes of memory.
  Rough estimation (10% accuracy) of disk space for files :
  WF disk file :      0.139 Mbytes ; DEN or POT disk file :      0.283 Mbytes.
================================================================================

 -outvars: echo values of preprocessed input variables --------
     acell    7.0000000000E+00  7.0000000000E+00  9.0000000000E+00 Bohr
       amu    1.59994000E+01
    diemac    1.00000000E+00
    diemix    3.33333333E-01
      ecut    1.40000000E+01 Hartree
      iscf         5
    istwfk      2
P    mkmem         1
     natom         2
     nband      8    8
     ngfft        24      24      32
      nkpt         1
    nspden         2
    nsppol         2
     nstep        20
      nsym         1
    ntypat         1
       occ    1.000000  1.000000  1.000000  1.000000  1.000000  1.000000
              1.000000  0.000000
              1.000000  1.000000  1.000000  1.000000  1.000000  0.000000
              0.000000  0.000000
    occopt         2
   spgroup         1
    spinat    0.0000000000E+00  0.0000000000E+00  1.0000000000E+00
              0.0000000000E+00  0.0000000000E+00  1.0000000000E+00
    toldfe    1.00000000E-07 Hartree
     typat    1  1
    xangst    0.0000000000E+00  0.0000000000E+00  5.5000000000E-01
              0.0000000000E+00  0.0000000000E+00 -5.5000000000E-01
     xcart    0.0000000000E+00  0.0000000000E+00  1.0393493731E+00
              0.0000000000E+00  0.0000000000E+00 -1.0393493731E+00
      xred    0.0000000000E+00  0.0000000000E+00  1.1548326368E-01
              0.0000000000E+00  0.0000000000E+00 -1.1548326368E-01
     znucl      8.00000

================================================================================

 chkinp: Checking input parameters for consistency.

================================================================================
== DATASET  1 ==================================================================

 Real(R)+Recip(G) space primitive vectors, cartesian coordinates (Bohr,Bohr^-1):
 R(1)=  7.0000000  0.0000000  0.0000000  G(1)=  0.1428571  0.0000000  0.0000000
 R(2)=  0.0000000  7.0000000  0.0000000  G(2)=  0.0000000  0.1428571  0.0000000
 R(3)=  0.0000000  0.0000000  9.0000000  G(3)=  0.0000000  0.0000000  0.1111111
 Unit cell volume ucvol=  4.4100000E+02 bohr^3
 Angles (23,13,12)=  9.00000000E+01  9.00000000E+01  9.00000000E+01 degrees

 getcut: wavevector=  0.0000  0.0000  0.0000  ngfft=  24  24  32
         ecut(hartree)=     14.000   => boxcut(ratio)=   2.03556

--- Pseudopotential description ------------------------------------------------
- pspini: atom type   1  psp file is /home/gonze/ABINIT/ABINITv5.6.3/test_gcc43/5.6.3-private/tests/Psps_for_tests/8o.pspnc
- pspatm: opening atomic psp file    /home/gonze/ABINIT/ABINITv5.6.3/test_gcc43/5.6.3-private/tests/Psps_for_tests/8o.pspnc
  Troullier-Martins psp for element  O         Thu Oct 27 17:29:57 EDT 1994
   8.00000   6.00000    940714                znucl, zion, pspdat
    1    1    1    1      2001   0.00000      pspcod,pspxc,lmax,lloc,mmax,r2well
    0   5.480  16.893    1   1.4482335        l,e99.0,e99.9,nproj,rcpsp
   0.00000000   0.00000000   0.00000000   0.00000000     rms, ekb1, ekb2, epsatm
    1  20.911  28.075    0   1.4482335        l,e99.0,e99.9,nproj,rcpsp
   0.00000000   0.00000000   0.00000000   0.00000000     rms, ekb1, ekb2, epsatm
    0.56990156784787    3.95561236318184    0.63894027514378   rchrg,fchrg,qchrg
 pspatm: epsatm=    1.57752239
         --- l  ekb(1:nproj) -->
             0    5.670783
 pspatm: atomic psp has been read  and splines computed

   3.78605374E+01                                ecore*ucvol(ha*bohr**3)
--------------------------------------------------------------------------------

P newkpt: treating      8 bands with npw=     562 for ikpt=   1
P newkpt: treating      8 bands with npw=     562 for ikpt=   1

 setup2: Arith. and geom. avg. npw (full set) are    1123.000    1123.000

================================================================================

     iter   Etot(hartree)      deltaE(h)  residm     vres2    diffor    maxfor
 ETOT  1  -31.715510938926    -3.172E+01 1.168E-02 6.208E+02 7.882E-01 7.882E-01
 ETOT  2  -32.093493544264    -3.780E-01 3.575E-04 1.753E+01 1.052E-01 6.830E-01
 ETOT  3  -32.096760367505    -3.267E-03 1.377E-04 5.990E+00 3.969E-02 6.433E-01
 ETOT  4  -32.096865134041    -1.048E-04 7.272E-06 4.257E+00 9.975E-04 6.424E-01
 ETOT  5  -32.097626536538    -7.614E-04 4.336E-05 1.574E+00 2.423E-02 6.182E-01
 ETOT  6  -32.097898123569    -2.716E-04 3.836E-05 1.054E-01 2.032E-02 5.978E-01
 ETOT  7  -32.097913014244    -1.489E-05 9.177E-07 2.709E-02 1.605E-04 5.977E-01
 ETOT  8  -32.097919624979    -6.611E-06 4.910E-07 5.645E-03 2.522E-03 6.002E-01
 ETOT  9  -32.097921182855    -1.558E-06 1.048E-07 3.498E-04 1.050E-03 6.012E-01
 ETOT 10  -32.097921283091    -1.002E-07 1.458E-08 2.783E-04 5.066E-04 6.018E-01
 ETOT 11  -32.097921339822    -5.673E-08 1.153E-09 6.206E-05 1.786E-04 6.016E-01
 ETOT 12  -32.097921358704    -1.888E-08 4.741E-10 3.219E-06 5.028E-05 6.015E-01

 At SCF step   12, etot is converged :
  for the second time, diff in etot=  1.888E-08 < toldfe=  1.000E-07

 Cartesian components of stress tensor (hartree/bohr^3)
  sigma(1 1)=  3.69617816E-03  sigma(3 2)= -5.48741759E-09
  sigma(2 2)=  3.69617119E-03  sigma(3 1)=  4.59487441E-10
  sigma(3 3)=  1.10319984E-03  sigma(2 1)= -1.12842345E-09

================================================================================

 ----iterations are completed or convergence reached----

 Mean square residual over all n,k,spin=   1.3946E-10; max=  4.7408E-10
   0.0000  0.0000  0.0000    1  2.25177E-10 kpt; spin; max resid(k); each band:
 1.46E-10 2.25E-10 1.12E-10 4.99E-11 1.21E-10 1.09E-10 5.64E-11 2.00E-11
   0.0000  0.0000  0.0000    2  4.74085E-10 kpt; spin; max resid(k); each band:
 4.74E-10 1.12E-10 2.98E-10 8.81E-11 1.01E-10 6.08E-11 8.40E-11 1.74E-10
 reduced coordinates (array xred) for    2 atoms
       0.000000000000      0.000000000000      0.115483263676
       0.000000000000      0.000000000000     -0.115483263676
 rms dE/dt=  3.1256E+00; max dE/dt=  5.4137E+00; dE/dt below (all hartree)
    1       0.000004907015     -0.000003859560     -5.413696434746
    2       0.000007418639      0.000004264367      5.413705684794

 cartesian coordinates (angstrom) at end:
    1      0.00000000000000     0.00000000000000     0.55000000000000
    2      0.00000000000000     0.00000000000000    -0.55000000000000

 cartesian forces (hartree/bohr) at end:
    1      0.00000017940174     0.00000058028050     0.60152233997441
    2     -0.00000017940174    -0.00000058028050    -0.60152233997441
 frms,max,avg= 3.4728908E-01 6.0152234E-01  -8.804E-07 -2.891E-08 -5.139E-07 h/b

 cartesian forces (eV/Angstrom) at end:
    1      0.00000922520766     0.00002983922053    30.93151977769905
    2     -0.00000922520766    -0.00002983922053   -30.93151977769905
 frms,max,avg= 1.7858321E+01 3.0931520E+01  -4.527E-05 -1.487E-06 -2.643E-05 e/A
 length scales=  7.000000000000  7.000000000000  9.000000000000 bohr
              =  3.704240460130  3.704240460130  4.762594877310 angstroms
 prteigrs : about to open file t09o_EIG
 Fermi (or HOMO) energy (hartree) =  -0.05497   Average Vxc (hartree)=  -0.19376
 Eigenvalues (hartree) for nkpt=   1  k points, SPIN UP:
 kpt#   1, nband=  8, wtk=  1.00000, kpt=  0.0000  0.0000  0.0000 (reduced coord)
  -1.25391  -0.67118  -0.40819  -0.40819  -0.39805  -0.05497  -0.05497   0.05446
 Eigenvalues (hartree) for nkpt=   1  k points, SPIN DOWN:
 kpt#   1, nband=  8, wtk=  1.00000, kpt=  0.0000  0.0000  0.0000 (reduced coord)
  -1.20776  -0.60621  -0.35533  -0.34599  -0.34599   0.01956   0.01956   0.06438
 Total charge density [el/Bohr^3]
,     Maximum=    8.4196E-01  at reduced coord.    0.0000    0.0000    0.0000
,Next maximum=    8.2437E-01  at reduced coord.    0.0000    0.0000    0.0313
,     Minimum=    8.7269E-06  at reduced coord.    0.5000    0.5000    0.4375
,Next minimum=    8.7271E-06  at reduced coord.    0.5000    0.5000    0.5625
 Spin up density      [el/Bohr^3]
,     Maximum=    5.1028E-01  at reduced coord.    0.0000    0.9167    0.1250
,Next maximum=    5.1028E-01  at reduced coord.    0.9167    0.0000    0.1250
,     Minimum=    3.9863E-06  at reduced coord.    0.5000    0.5000    0.4375
,Next minimum=    3.9863E-06  at reduced coord.    0.5000    0.5000    0.5625
 Spin down density    [el/Bohr^3]
,     Maximum=    4.2268E-01  at reduced coord.    0.0000    0.0000    0.0000
,Next maximum=    4.1292E-01  at reduced coord.    0.0000    0.0000    0.0313
,     Minimum=    4.7407E-06  at reduced coord.    0.5000    0.5000    0.4375
,Next minimum=    4.7408E-06  at reduced coord.    0.5000    0.5000    0.5625
 Magnetization (spin up - spin down) [el/Bohr^3]
,     Maximum=    2.1347E-01  at reduced coord.    0.0417    0.0833    0.8750
,Next maximum=    2.1347E-01  at reduced coord.    0.9583    0.0833    0.8750
,     Minimum=   -3.3976E-03  at reduced coord.    0.0000    0.0000    0.0000
,Next minimum=   -3.0794E-03  at reduced coord.    0.0417    0.0000    0.0000
 Relative magnetization (=zeta, between -1 and 1)
,     Maximum=    3.6163E-01  at reduced coord.    0.7500    0.7083    0.7813
,Next maximum=    3.6163E-01  at reduced coord.    0.2500    0.7083    0.7813
,     Minimum=   -3.4428E-01  at reduced coord.    0.7083    0.5000    0.5000
,Next minimum=   -3.4428E-01  at reduced coord.    0.5000    0.7083    0.5000

--------------------------------------------------------------------------------
 Components of total free energy (in Hartree) :

    Kinetic energy  =  2.00553290771131E+01
    Hartree energy  =  1.82676686351570E+01
    XC energy       = -8.11138582614497E+00
    Ewald energy    = -8.65257592874657E+00
    PspCore energy  =  8.58515587537110E-02
    Loc. psp. energy= -5.83889779129862E+01
    NL   psp  energy=  4.64616903814956E+00
    >>>>>>>>> Etotal= -3.20979213587043E+01

 Other information on the energy :
    Total energy(eV)= -8.73428859199795E+02 ; Band energy (Ha)=  -6.1107153550E+00
--------------------------------------------------------------------------------

 Cartesian components of stress tensor (hartree/bohr^3)
  sigma(1 1)=  3.69617816E-03  sigma(3 2)= -5.48741759E-09
  sigma(2 2)=  3.69617119E-03  sigma(3 1)=  4.59487441E-10
  sigma(3 3)=  1.10319984E-03  sigma(2 1)= -1.12842345E-09

-Cartesian components of stress tensor (GPa)         [Pressure= -8.3316E+01 GPa]
- sigma(1 1)=  1.08745297E+02  sigma(3 2)= -1.61445372E-04
- sigma(2 2)=  1.08745093E+02  sigma(3 1)=  1.35185850E-05
- sigma(3 3)=  3.24572545E+01  sigma(2 1)= -3.31993584E-05

== END DATASET(S) ==============================================================
================================================================================
  
 -outvars: echo values of variables after computation  --------
     acell    7.0000000000E+00  7.0000000000E+00  9.0000000000E+00 Bohr
       amu    1.59994000E+01
    diemac    1.00000000E+00
    diemix    3.33333333E-01
      ecut    1.40000000E+01 Hartree
    etotal   -3.2097921359E+01
     fcart    1.7940174101E-07  5.8028049971E-07  6.0152233997E-01
             -1.7940174101E-07 -5.8028049971E-07 -6.0152233997E-01
      iscf         5
    istwfk      2
P    mkmem         1
     natom         2
     nband      8    8
     ngfft        24      24      32
      nkpt         1
    nspden         2
    nsppol         2
     nstep        20
      nsym         1
    ntypat         1
       occ    1.000000  1.000000  1.000000  1.000000  1.000000  1.000000
              1.000000  0.000000
              1.000000  1.000000  1.000000  1.000000  1.000000  0.000000
              0.000000  0.000000
    occopt         2
   spgroup         1
    spinat    0.0000000000E+00  0.0000000000E+00  1.0000000000E+00
              0.0000000000E+00  0.0000000000E+00  1.0000000000E+00
    strten    3.6961781562E-03  3.6961711923E-03  1.1031998422E-03
             -5.4874175896E-09  4.5948744128E-10 -1.1284234472E-09
    toldfe    1.00000000E-07 Hartree
     typat    1  1
    xangst    0.0000000000E+00  0.0000000000E+00  5.5000000000E-01
              0.0000000000E+00  0.0000000000E+00 -5.5000000000E-01
     xcart    0.0000000000E+00  0.0000000000E+00  1.0393493731E+00
              0.0000000000E+00  0.0000000000E+00 -1.0393493731E+00
      xred    0.0000000000E+00  0.0000000000E+00  1.1548326368E-01
              0.0000000000E+00  0.0000000000E+00 -1.1548326368E-01
     znucl      8.00000

================================================================================

- Total cpu        time (s,m,h):          1.8        0.03      0.001
- Total wall clock time (s,m,h):          1.8        0.03      0.001

- For major independent code sections, cpu and wall times (sec),
- as well as % of the total time and number of calls 

- routine                 cpu     %       wall     %      number of calls 
-                                                          (-1=no count)
- fourwf(pot)            0.620  33.9      0.621  34.0           1085
- timing timab           0.351  19.2      0.350  19.2             11
- pspini                 0.132   7.2      0.132   7.2              1
- invars2                0.105   5.7      0.104   5.7              1
- xc:pot/=fourdp         0.103   5.6      0.102   5.6             13
- fourwf(den)            0.055   3.0      0.049   2.7            144
- forces                 0.046   2.5      0.045   2.5             12
- projbd                 0.042   2.3      0.042   2.3           1722
- nonlop(apply)          0.034   1.9      0.029   1.6           1085
- abinit(2)              0.030   1.6      0.030   1.6              1
- vtowfk(ssdiag)         0.021   1.1      0.017   0.9             -1
- getghc-other           0.018   1.0      0.020   1.1             -1
- fourdp                 0.017   0.9      0.021   1.1             28
- vtorho(4)-mkrho-       0.015   0.8      0.012   0.7             12
- 56   others            0.051   2.8      0.055   3.0

- subtotal               1.640  89.8      1.629  89.2

================================================================================

 Calculation completed.
.Delivered    1 WARNINGs and   1 COMMENTs to log file.
+Overall time at end (sec) : cpu=          1.8  wall=          1.8
