
.Version 5.6.3  of ABINIT 
.(sequential version, prepared for a x86_64_linux_gcc4.3 computer) 

.Copyright (C) 1998-2008 ABINIT group . 
 ABINIT comes with ABSOLUTELY NO WARRANTY.
 It is free software, and you are welcome to redistribute it
 under certain conditions (GNU General Public License,
 see ~abinit/COPYING or http://www.gnu.org/copyleft/gpl.txt).

 ABINIT is a project of the Universite Catholique de Louvain,
 Corning Inc. and other collaborators, see ~abinit/doc/developers/contributors.txt .
 Please read ~abinit/doc/users/acknowledgments.html for suggested
 acknowledgments of the ABINIT effort.
 For more information, see http://www.abinit.org .

.Starting date : Thu  6 Nov 2008.
  
- input  file    -> /home/gonze/ABINIT/ABINITv5.6.3/test_gcc43/5.6.3-private/tests/v1/Input/t44.in
- output file    -> t44.out
- root for input  files -> t44i
- root for output files -> t44o


 Symmetries : space group P1 (#  1); Bravais aP (primitive triclinic)
================================================================================
 Values of the parameters that define the memory need of the present run
   intxc =         1  ionmov =         4    iscf =         2 xclevel =         1
  lmnmax =         2   lnmax =         2   mband =        16  mffmem =         0
P  mgfft =        16   mkmem =         0 mpssoang=         3     mpw =       272
  mqgrid =      3001   natom =         8    nfft =      4096    nkpt =         4
  nloalg =         4  nspden =         1 nspinor =         1  nsppol =         1
    nsym =         1  n1xccc =      2501  ntypat =         1  occopt =         0
================================================================================
P This job should need less than                       1.309 Mbytes of memory.
  Rough estimation (10% accuracy) of disk space for files :
  WF disk file :      0.268 Mbytes ; DEN or POT disk file :      0.033 Mbytes.
  mkmem==0 => use of 2 WF temporary disk files
  mffmem==0, iscf==2 => use of 1 FFT temporary disk file,
                       3 times bigger than a DEN file.
================================================================================

 -outvars: echo values of preprocessed input variables --------
     acell    1.0263110000E+01  1.0263110000E+01  1.0263110000E+01 Bohr
       amu    2.80855000E+01
    diemac    1.20000000E+01
      ecut    2.99000000E+00 Hartree
    enunit         2
    iatfix      2    3    4    5    6    7    8
     intxc         1
    ionmov         4
    iprcch         1
    iprcfc         1
      iscf         2
       kpt    1.00000000E+00  1.00000000E+00  1.00000000E+00
             -1.00000000E+00  1.00000000E+00  1.00000000E+00
              1.00000000E+00 -1.00000000E+00  1.00000000E+00
              1.00000000E+00  1.00000000E+00 -1.00000000E+00
    kptnrm    4.00000000E+00
    mffmem         0
P    mkmem         0
    natfix         7
     natom         8
     nband        16
     ngfft        16      16      16
      nkpt         4
     nline         3
     nstep        80
      nsym         1
     ntime         6
    ntypat         1
       occ    2.000000  2.000000  2.000000  2.000000  2.000000  2.000000
              2.000000  2.000000  2.000000  2.000000  2.000000  2.000000
              2.000000  2.000000  2.000000  2.000000
    occopt         0
   spgroup         1
    toldff    5.00000000E-06
     typat    1  1  1  1  1  1  1  1
       wtk      0.25000    0.25000    0.25000    0.25000
    xangst    5.4310039013E-03  0.0000000000E+00  0.0000000000E+00
              1.3577509753E+00  1.3577509753E+00  1.3577509753E+00
              0.0000000000E+00  2.7155019506E+00  2.7155019506E+00
              1.3577509753E+00  4.0732529259E+00  4.0732529259E+00
              2.7155019506E+00  0.0000000000E+00  2.7155019506E+00
              4.0732529259E+00  1.3577509753E+00  4.0732529259E+00
              2.7155019506E+00  2.7155019506E+00  0.0000000000E+00
              4.0732529259E+00  4.0732529259E+00  1.3577509753E+00
     xcart    1.0263110000E-02  0.0000000000E+00  0.0000000000E+00
              2.5657775000E+00  2.5657775000E+00  2.5657775000E+00
              0.0000000000E+00  5.1315550000E+00  5.1315550000E+00
              2.5657775000E+00  7.6973325000E+00  7.6973325000E+00
              5.1315550000E+00  0.0000000000E+00  5.1315550000E+00
              7.6973325000E+00  2.5657775000E+00  7.6973325000E+00
              5.1315550000E+00  5.1315550000E+00  0.0000000000E+00
              7.6973325000E+00  7.6973325000E+00  2.5657775000E+00
      xred    1.0000000000E-03  0.0000000000E+00  0.0000000000E+00
              2.5000000000E-01  2.5000000000E-01  2.5000000000E-01
              0.0000000000E+00  5.0000000000E-01  5.0000000000E-01
              2.5000000000E-01  7.5000000000E-01  7.5000000000E-01
              5.0000000000E-01  0.0000000000E+00  5.0000000000E-01
              7.5000000000E-01  2.5000000000E-01  7.5000000000E-01
              5.0000000000E-01  5.0000000000E-01  0.0000000000E+00
              7.5000000000E-01  7.5000000000E-01  2.5000000000E-01
     znucl     14.00000

================================================================================

 chkinp: Checking input parameters for consistency.

================================================================================
== DATASET  1 ==================================================================

 Real(R)+Recip(G) space primitive vectors, cartesian coordinates (Bohr,Bohr^-1):
 R(1)= 10.2631100  0.0000000  0.0000000  G(1)=  0.0974364  0.0000000  0.0000000
 R(2)=  0.0000000 10.2631100  0.0000000  G(2)=  0.0000000  0.0974364  0.0000000
 R(3)=  0.0000000  0.0000000 10.2631100  G(3)=  0.0000000  0.0000000  0.0974364
 Unit cell volume ucvol=  1.0810280E+03 bohr^3
 Angles (23,13,12)=  9.00000000E+01  9.00000000E+01  9.00000000E+01 degrees

 getcut: wavevector=  0.0000  0.0000  0.0000  ngfft=  16  16  16
         ecut(hartree)=      2.990   => boxcut(ratio)=   2.00281

--- Pseudopotential description ------------------------------------------------
- pspini: atom type   1  psp file is /home/gonze/ABINIT/ABINITv5.6.3/test_gcc43/5.6.3-private/tests/Psps_for_tests/14si.pspnc
- pspatm: opening atomic psp file    /home/gonze/ABINIT/ABINITv5.6.3/test_gcc43/5.6.3-private/tests/Psps_for_tests/14si.pspnc
  Troullier-Martins psp for element  Si        Thu Oct 27 17:31:21 EDT 1994
  14.00000   4.00000    940714                znucl, zion, pspdat
    1    1    2    2      2001   0.00000      pspcod,pspxc,lmax,lloc,mmax,r2well
    0   5.907  14.692    1   2.0872718        l,e99.0,e99.9,nproj,rcpsp
   0.00000000   0.00000000   0.00000000   0.00000000     rms, ekb1, ekb2, epsatm
    1   2.617   4.181    1   2.0872718        l,e99.0,e99.9,nproj,rcpsp
   0.00000000   0.00000000   0.00000000   0.00000000     rms, ekb1, ekb2, epsatm
    2   0.000   0.000    0   2.0872718        l,e99.0,e99.9,nproj,rcpsp
   0.00000000   0.00000000   0.00000000   0.00000000     rms, ekb1, ekb2, epsatm
    1.80626423934776    0.22824404341771    1.17378968127746   rchrg,fchrg,qchrg
 pspatm: epsatm=    1.43386982
         --- l  ekb(1:nproj) -->
             0    3.287949
             1    1.849886
 pspatm: atomic psp has been read  and splines computed

   3.67070674E+02                                ecore*ucvol(ha*bohr**3)
--------------------------------------------------------------------------------

P newkpt: treating     16 bands with npw=     272 for ikpt=   1
P newkpt: treating     16 bands with npw=     272 for ikpt=   2
P newkpt: treating     16 bands with npw=     272 for ikpt=   3
P newkpt: treating     16 bands with npw=     272 for ikpt=   4

 setup2: Arith. and geom. avg. npw (full set) are     272.000     272.000

================================================================================

 STEP NUMBER   1 : OPTIMIZE ELECTRONS ------------------------------------

     iter   Etot(hartree)      deltaE(h)  residm     vres2    diffor    maxfor
 ETOT  1  -35.130528045887    -3.513E+01 1.661E-02 2.121E+00 2.596E-03 2.596E-03
 ETOT  2  -35.190897789408    -6.037E-02 8.054E-06 1.419E-01 2.472E-03 1.400E-03
 ETOT  3  -35.191542020084    -6.442E-04 4.298E-06 6.308E-03 1.173E-03 1.260E-03
 ETOT  4  -35.191563657534    -2.164E-05 1.103E-07 4.713E-04 2.072E-04 1.331E-03
 ETOT  5  -35.191565063926    -1.406E-06 7.385E-09 3.684E-05 3.515E-05 1.319E-03
 ETOT  6  -35.191565168738    -1.048E-07 5.698E-10 3.026E-06 7.401E-06 1.322E-03
 ETOT  7  -35.191565177298    -8.560E-09 4.045E-11 2.529E-07 1.092E-06 1.322E-03
 ETOT  8  -35.191565178012    -7.139E-10 2.983E-12 2.087E-08 2.238E-07 1.322E-03

 At SCF step    8, forces are converged :
  for the second time, max diff in force=  2.238E-07 < toldff=  5.000E-06

 Cartesian components of stress tensor (hartree/bohr^3)
  sigma(1 1)=  3.74702907E-04  sigma(3 2)= -1.63114286E-06
  sigma(2 2)=  3.74685356E-04  sigma(3 1)= -3.58958254E-10
  sigma(3 3)=  3.74685344E-04  sigma(2 1)= -3.02404968E-11


 STEP NUMBER   2 : OPTIMIZE ELECTRONS AND IONS ---------------------------

     iter   Etot(hartree)      deltaE(h)  residm     vres2    diffor    maxfor
 ETOT  1  -35.191565178017    -3.519E+01 7.803E-16 1.531E-08 5.862E-08 1.322E-03
 ETOT  2  -35.191563813388     1.365E-06 1.230E-10 1.242E-03 1.456E-04 1.176E-03
 ETOT  3  -35.191567731252    -3.918E-06 3.696E-09 7.122E-04 3.504E-04 8.260E-04
 ETOT  4  -35.191569819064    -2.088E-06 1.463E-09 3.889E-04 2.567E-04 5.693E-04
 ETOT  5  -35.191570946096    -1.127E-06 6.170E-10 1.875E-04 1.801E-04 3.892E-04
 ETOT  6  -35.191571479964    -5.339E-07 2.803E-10 9.006E-05 1.228E-04 2.664E-04
 ETOT  7  -35.191571735172    -2.552E-07 1.312E-10 4.246E-05 8.380E-05 1.826E-04
 ETOT  8  -35.191571854983    -1.198E-07 6.155E-11 2.008E-05 5.734E-05 1.253E-04
 ETOT  9  -35.191571911576    -5.659E-08 2.901E-11 9.461E-06 3.930E-05 8.600E-05
 ETOT 10  -35.191571938219    -2.664E-08 1.366E-11 4.463E-06 2.697E-05 5.903E-05
 ETOT 11  -35.191571950784    -1.256E-08 6.442E-12 2.103E-06 1.850E-05 4.053E-05
 ETOT 12  -35.191571956705    -5.921E-09 3.036E-12 9.917E-07 1.271E-05 2.782E-05
 ETOT 13  -35.191571959496    -2.791E-09 1.431E-12 4.674E-07 8.720E-06 1.910E-05
 ETOT 14  -35.191571960812    -1.316E-09 6.747E-13 2.204E-07 5.988E-06 1.312E-05
 ETOT 15  -35.191571961432    -6.203E-10 3.180E-13 1.039E-07 4.110E-06 9.006E-06
 ETOT 16  -35.191571961725    -2.925E-10 1.499E-13 4.897E-08 2.823E-06 6.183E-06

 At SCF step   16, forces are converged :
  for the second time, max diff in force=  2.823E-06 < toldff=  5.000E-06

 Cartesian components of stress tensor (hartree/bohr^3)
  sigma(1 1)=  3.74713847E-04  sigma(3 2)= -1.31391381E-08
  sigma(2 2)=  3.74713846E-04  sigma(3 1)=  0.00000000E+00
  sigma(3 3)=  3.74713846E-04  sigma(2 1)=  4.08008821E-14


 STEP NUMBER   3 : OPTIMIZE ELECTRONS ------------------------------------

     iter   Etot(hartree)      deltaE(h)  residm     vres2    diffor    maxfor
 ETOT  1  -35.191571961369    -3.519E+01 4.995E-15 1.593E-07 2.404E-06 3.780E-06
 ETOT  2  -35.191571961866    -4.974E-10 2.061E-15 4.537E-09 1.530E-06 5.310E-06
 ETOT  3  -35.191571961884    -1.712E-11 2.695E-13 5.501E-10 2.431E-07 5.067E-06

 At SCF step    3, forces are converged :
  for the second time, max diff in force=  2.431E-07 < toldff=  5.000E-06

 Cartesian components of stress tensor (hartree/bohr^3)
  sigma(1 1)=  3.74713846E-04  sigma(3 2)= -6.23770539E-09
  sigma(2 2)=  3.74713846E-04  sigma(3 1)=  1.15865855E-15
  sigma(3 3)=  3.74713846E-04  sigma(2 1)=  1.94372356E-14


 At Broyd/MD step   3, gradients are converged :
  max grad (force/stress) = 5.0665E-06 < tolmxf= 5.0000E-05 ha/bohr (free atoms)

================================================================================

 ----iterations are completed or convergence reached----

 Mean square residual over all n,k,spin=   1.6179E-13; max=  2.6951E-13
   0.2500  0.2500  0.2500    1  2.69514E-13 kpt; spin; max resid(k); each band:
 2.70E-13 1.87E-13 1.54E-13 2.52E-13 1.97E-13 1.81E-13 2.10E-13 1.49E-13
 1.24E-13 5.84E-14 8.58E-14 1.11E-13 1.28E-13 1.70E-13 1.43E-13 1.69E-13
  -0.2500  0.2500  0.2500    1  2.69514E-13 kpt; spin; max resid(k); each band:
 2.70E-13 1.87E-13 1.54E-13 2.52E-13 1.97E-13 1.81E-13 2.10E-13 1.49E-13
 1.24E-13 5.84E-14 8.58E-14 1.11E-13 1.28E-13 1.70E-13 1.43E-13 1.69E-13
   0.2500 -0.2500  0.2500    1  2.69514E-13 kpt; spin; max resid(k); each band:
 2.70E-13 2.52E-13 1.54E-13 1.87E-13 2.10E-13 1.81E-13 1.97E-13 1.49E-13
 8.58E-14 5.84E-14 1.24E-13 1.70E-13 1.28E-13 1.11E-13 1.69E-13 1.43E-13
   0.2500  0.2500 -0.2500    1  2.69514E-13 kpt; spin; max resid(k); each band:
 2.70E-13 2.52E-13 1.54E-13 1.87E-13 2.10E-13 1.81E-13 1.97E-13 1.49E-13
 8.58E-14 5.84E-14 1.24E-13 1.70E-13 1.28E-13 1.11E-13 1.69E-13 1.43E-13
 reduced coordinates (array xred) for    8 atoms
       0.000003845125     -0.000000000001     -0.000000000012
       0.250000000000      0.250000000000      0.250000000000
       0.000000000000      0.500000000000      0.500000000000
       0.250000000000      0.750000000000      0.750000000000
       0.500000000000      0.000000000000      0.500000000000
       0.750000000000      0.250000000000      0.750000000000
       0.500000000000      0.500000000000      0.000000000000
       0.750000000000      0.750000000000      0.250000000000
 rms dE/dt=  1.2937E-05; max dE/dt=  5.1998E-05; dE/dt below (all hartree)
    1       0.000051998284     -0.000000000010     -0.000000000162
    2      -0.000012835542     -0.000008465138     -0.000008465125
    3       0.000007115940      0.000000000001      0.000000000012
    4      -0.000012835599      0.000008465195      0.000008465208
    5      -0.000003886854     -0.000000000001      0.000000000012
    6      -0.000012835199      0.000008464626     -0.000008464612
    7      -0.000003886854      0.000000000001     -0.000000000022
    8      -0.000012835248     -0.000008464674      0.000008464689

 cartesian coordinates (angstrom) at end:
    1      0.00002088288801    -0.00000000000383    -0.00000000006517
    2      1.35775097531303     1.35775097531303     1.35775097531303
    3      0.00000000000000     2.71550195062606     2.71550195062606
    4      1.35775097531303     4.07325292593909     4.07325292593909
    5      2.71550195062606     0.00000000000000     2.71550195062606
    6      4.07325292593909     1.35775097531303     4.07325292593909
    7      2.71550195062606     2.71550195062606     0.00000000000000
    8      4.07325292593909     4.07325292593909     1.35775097531303

 cartesian forces (hartree/bohr) at end:
    1     -0.00000506653617     0.00000000000094     0.00000000001578
    2      0.00000125063539     0.00000082481216     0.00000082481090
    3     -0.00000069336432    -0.00000000000007    -0.00000000000118
    4      0.00000125064086    -0.00000082481776    -0.00000082481901
    5      0.00000037870780     0.00000000000011    -0.00000000000116
    6      0.00000125060190    -0.00000082476232     0.00000082476092
    7      0.00000037870780    -0.00000000000006     0.00000000000217
    8      0.00000125060674     0.00000082476700    -0.00000082476841
 frms,max,avg= 2.9251660E-06 5.0665362E-06   1.304E-11  0.000E+00  0.000E+00 h/b

 cartesian forces (eV/Angstrom) at end:
    1     -0.00026053174287     0.00000000004839     0.00000000081141
    2      0.00006431025215     0.00004241354313     0.00004241347814
    3     -0.00003565422377    -0.00000000000379    -0.00000000006090
    4      0.00006431053344    -0.00004241383075    -0.00004241389543
    5      0.00001947393624     0.00000000000570    -0.00000000005959
    6      0.00006430852991    -0.00004241098036     0.00004241090816
    7      0.00001947393618    -0.00000000000315     0.00000000011155
    8      0.00006430877871     0.00004241122083    -0.00004241129335
 frms,max,avg= 1.5041807E-04 2.6053174E-04   6.707E-10  0.000E+00  0.000E+00 e/A
 length scales= 10.263110000000 10.263110000000 10.263110000000 bohr
              =  5.431003901252  5.431003901252  5.431003901252 angstroms
 prteigrs : about to open file t44o_EIG
 Fermi (or HOMO) energy (hartree) =   0.18884   Average Vxc (hartree)=  -0.35270
 Eigenvalues (hartree) for nkpt=   4  k points:
 kpt#   1, nband= 16, wtk=  0.25000, kpt=  0.2500  0.2500  0.2500 (reduced coord)
  -0.18706  -0.11509  -0.11509  -0.11509  -0.01360  -0.01360  -0.01360   0.07380
   0.08415   0.08415   0.08415   0.13265   0.13265   0.13265   0.18884   0.18884
 kpt#   2, nband= 16, wtk=  0.25000, kpt= -0.2500  0.2500  0.2500 (reduced coord)
  -0.18706  -0.11509  -0.11509  -0.11509  -0.01360  -0.01360  -0.01360   0.07380
   0.08415   0.08415   0.08415   0.13265   0.13265   0.13265   0.18884   0.18884
 kpt#   3, nband= 16, wtk=  0.25000, kpt=  0.2500 -0.2500  0.2500 (reduced coord)
  -0.18706  -0.11509  -0.11509  -0.11509  -0.01360  -0.01360  -0.01360   0.07380
   0.08415   0.08415   0.08415   0.13265   0.13265   0.13265   0.18884   0.18884
 kpt#   4, nband= 16, wtk=  0.25000, kpt=  0.2500  0.2500 -0.2500 (reduced coord)
  -0.18706  -0.11509  -0.11509  -0.11509  -0.01360  -0.01360  -0.01360   0.07380
   0.08415   0.08415   0.08415   0.13265   0.13265   0.13265   0.18884   0.18884
 Fermi (or HOMO) energy (eV) =   5.13864   Average Vxc (eV)=  -9.59736
 Eigenvalues (   eV  ) for nkpt=   4  k points:
 kpt#   1, nband= 16, wtk=  0.25000, kpt=  0.2500  0.2500  0.2500 (reduced coord)
  -5.09006  -3.13169  -3.13166  -3.13166  -0.36998  -0.36996  -0.36995   2.00821
   2.28980   2.28982   2.28982   3.60963   3.60963   3.60965   5.13862   5.13864
 kpt#   2, nband= 16, wtk=  0.25000, kpt= -0.2500  0.2500  0.2500 (reduced coord)
  -5.09006  -3.13169  -3.13166  -3.13166  -0.36998  -0.36996  -0.36995   2.00821
   2.28980   2.28982   2.28982   3.60963   3.60963   3.60965   5.13862   5.13864
 kpt#   3, nband= 16, wtk=  0.25000, kpt=  0.2500 -0.2500  0.2500 (reduced coord)
  -5.09006  -3.13168  -3.13168  -3.13165  -0.36999  -0.36998  -0.36995   2.00823
   2.28982   2.28982   2.28985   3.60962   3.60963   3.60963   5.13861   5.13864
 kpt#   4, nband= 16, wtk=  0.25000, kpt=  0.2500  0.2500 -0.2500 (reduced coord)
  -5.09006  -3.13168  -3.13168  -3.13165  -0.36999  -0.36998  -0.36995   2.00823
   2.28982   2.28982   2.28985   3.60962   3.60963   3.60963   5.13861   5.13864
 Total charge density [el/Bohr^3]
,     Maximum=    8.7994E-02  at reduced coord.    0.1250    0.8750    0.8750
,Next maximum=    8.7994E-02  at reduced coord.    0.1250    0.1250    0.1250
,     Minimum=    3.4763E-03  at reduced coord.    0.7500    0.2500    0.2500
,Next minimum=    3.4763E-03  at reduced coord.    0.7500    0.7500    0.7500

--------------------------------------------------------------------------------
 Components of total free energy (in Hartree) :

    Kinetic energy  =  1.16819735820331E+01
    Hartree energy  =  2.12455537125785E+00
    XC energy       = -1.41070083928825E+01
    Ewald energy    = -3.35916768719822E+01
    PspCore energy  =  3.39557039532177E-01
    Loc. psp. energy= -9.85492267213653E+00
    NL   psp  energy=  8.21594998229458E+00
    >>>>>>>>> Etotal= -3.51915719618835E+01

 Other information on the energy :
    Total energy(eV)= -9.57611373291626E+02 ; Band energy (Ha)=   1.0575624971E+00
--------------------------------------------------------------------------------
 rms coord change=  2.0334E-04   atom, delta coord (reduced):
     1       -0.000996154875     -0.000000000001     -0.000000000012
     2        0.000000000000      0.000000000000      0.000000000000
     3        0.000000000000      0.000000000000      0.000000000000
     4        0.000000000000      0.000000000000      0.000000000000
     5        0.000000000000      0.000000000000      0.000000000000
     6        0.000000000000      0.000000000000      0.000000000000
     7        0.000000000000      0.000000000000      0.000000000000
     8        0.000000000000      0.000000000000      0.000000000000

 Cartesian components of stress tensor (hartree/bohr^3)
  sigma(1 1)=  3.74713846E-04  sigma(3 2)= -6.23770539E-09
  sigma(2 2)=  3.74713846E-04  sigma(3 1)=  1.15865855E-15
  sigma(3 3)=  3.74713846E-04  sigma(2 1)=  1.94372356E-14

-Cartesian components of stress tensor (GPa)         [Pressure= -1.1024E+01 GPa]
- sigma(1 1)=  1.10244601E+01  sigma(3 2)= -1.83519598E-04
- sigma(2 2)=  1.10244601E+01  sigma(3 1)=  3.40889057E-11
- sigma(3 3)=  1.10244601E+01  sigma(2 1)=  5.71863118E-10

== END DATASET(S) ==============================================================
================================================================================
  
 -outvars: echo values of variables after computation  --------
     acell    1.0263110000E+01  1.0263110000E+01  1.0263110000E+01 Bohr
       amu    2.80855000E+01
    diemac    1.20000000E+01
      ecut    2.99000000E+00 Hartree
    enunit         2
    etotal   -3.5191571962E+01
     fcart   -5.0665361654E-06  9.4101689860E-13  1.5779484499E-11
              0.0000000000E+00  0.0000000000E+00  0.0000000000E+00
              0.0000000000E+00  0.0000000000E+00  0.0000000000E+00
              0.0000000000E+00  0.0000000000E+00  0.0000000000E+00
              0.0000000000E+00  0.0000000000E+00  0.0000000000E+00
              0.0000000000E+00  0.0000000000E+00  0.0000000000E+00
              0.0000000000E+00  0.0000000000E+00  0.0000000000E+00
              0.0000000000E+00  0.0000000000E+00  0.0000000000E+00
    iatfix      2    3    4    5    6    7    8
     intxc         1
    ionmov         4
    iprcch         1
    iprcfc         1
      iscf         2
       kpt    1.00000000E+00  1.00000000E+00  1.00000000E+00
             -1.00000000E+00  1.00000000E+00  1.00000000E+00
              1.00000000E+00 -1.00000000E+00  1.00000000E+00
              1.00000000E+00  1.00000000E+00 -1.00000000E+00
    kptnrm    4.00000000E+00
    mffmem         0
P    mkmem         0
    natfix         7
     natom         8
     nband        16
     ngfft        16      16      16
      nkpt         4
     nline         3
     nstep        80
      nsym         1
     ntime         6
    ntypat         1
       occ    2.000000  2.000000  2.000000  2.000000  2.000000  2.000000
              2.000000  2.000000  2.000000  2.000000  2.000000  2.000000
              2.000000  2.000000  2.000000  2.000000
    occopt         0
   spgroup         1
    strten    3.7471384612E-04  3.7471384585E-04  3.7471384581E-04
             -6.2377053899E-09  1.1586585493E-15  1.9437235574E-14
    toldff    5.00000000E-06
     typat    1  1  1  1  1  1  1  1
       wtk      0.25000    0.25000    0.25000    0.25000
    xangst    2.0882888012E-05 -3.8325839714E-12 -6.5172044935E-11
              1.3577509753E+00  1.3577509753E+00  1.3577509753E+00
              0.0000000000E+00  2.7155019506E+00  2.7155019506E+00
              1.3577509753E+00  4.0732529259E+00  4.0732529259E+00
              2.7155019506E+00  0.0000000000E+00  2.7155019506E+00
              4.0732529259E+00  1.3577509753E+00  4.0732529259E+00
              2.7155019506E+00  2.7155019506E+00  0.0000000000E+00
              4.0732529259E+00  4.0732529259E+00  1.3577509753E+00
     xcart    3.9462939207E-05 -7.2425340873E-12 -1.2315731645E-10
              2.5657775000E+00  2.5657775000E+00  2.5657775000E+00
              0.0000000000E+00  5.1315550000E+00  5.1315550000E+00
              2.5657775000E+00  7.6973325000E+00  7.6973325000E+00
              5.1315550000E+00  0.0000000000E+00  5.1315550000E+00
              7.6973325000E+00  2.5657775000E+00  7.6973325000E+00
              5.1315550000E+00  5.1315550000E+00  0.0000000000E+00
              7.6973325000E+00  7.6973325000E+00  2.5657775000E+00
      xred    3.8451248410E-06 -7.0568610171E-13 -1.1999999654E-11
              2.5000000000E-01  2.5000000000E-01  2.5000000000E-01
              0.0000000000E+00  5.0000000000E-01  5.0000000000E-01
              2.5000000000E-01  7.5000000000E-01  7.5000000000E-01
              5.0000000000E-01  0.0000000000E+00  5.0000000000E-01
              7.5000000000E-01  2.5000000000E-01  7.5000000000E-01
              5.0000000000E-01  5.0000000000E-01  0.0000000000E+00
              7.5000000000E-01  7.5000000000E-01  2.5000000000E-01
     znucl     14.00000

================================================================================

- Total cpu        time (s,m,h):          5.5        0.09      0.002
- Total wall clock time (s,m,h):          5.5        0.09      0.002

- For major independent code sections, cpu and wall times (sec),
- as well as % of the total time and number of calls 

- routine                 cpu     %       wall     %      number of calls 
-                                                          (-1=no count)
- fourwf(pot)            1.671  30.4      1.671  30.4           8448
- nonlop(apply)          0.541   9.8      0.554  10.1           8448
- projbd                 0.458   8.3      0.445   8.1          12672
- timing timab           0.340   6.2      0.341   6.2             11
- vtorho-kpt loop        0.301   5.5      0.309   5.6             27
- status                 0.293   5.3      0.299   5.4           2441
- ewald                  0.284   5.2      0.283   5.1             18
- vtowfk(ssdiag)         0.228   4.1      0.229   4.2             -1
- pspini                 0.223   4.1      0.223   4.1              1
- fourwf(den)            0.197   3.6      0.196   3.6           1728
- nonlop(forces)         0.157   2.9      0.150   2.7           1728
- getghc-other           0.116   2.1      0.113   2.1             -1
- invars2                0.112   2.0      0.113   2.1              1
- rwwf                   0.105   1.9      0.098   1.8            240
- forces                 0.100   1.8      0.098   1.8             27
- mkcore                 0.061   1.1      0.061   1.1             48
- xc:pot/=fourdp         0.046   0.8      0.039   0.7             45
- stress                 0.036   0.7      0.035   0.6              3
- fourdp                 0.035   0.6      0.043   0.8            304
- vtowfk(contrib)        0.033   0.6      0.037   0.7            108
- abinit(2)              0.033   0.6      0.033   0.6              1
- ewald2                 0.028   0.5      0.029   0.5              3
- 48   others            0.056   1.0      0.068   1.2

- subtotal               5.454  99.2      5.467  99.5

================================================================================

 Calculation completed.
.Delivered    5 WARNINGs and   1 COMMENTs to log file.
+Overall time at end (sec) : cpu=          5.5  wall=          5.5
