
.Version 5.6.3  of ABINIT 
.(sequential version, prepared for a x86_64_linux_gcc4.3 computer) 

.Copyright (C) 1998-2008 ABINIT group . 
 ABINIT comes with ABSOLUTELY NO WARRANTY.
 It is free software, and you are welcome to redistribute it
 under certain conditions (GNU General Public License,
 see ~abinit/COPYING or http://www.gnu.org/copyleft/gpl.txt).

 ABINIT is a project of the Universite Catholique de Louvain,
 Corning Inc. and other collaborators, see ~abinit/doc/developers/contributors.txt .
 Please read ~abinit/doc/users/acknowledgments.html for suggested
 acknowledgments of the ABINIT effort.
 For more information, see http://www.abinit.org .

.Starting date : Thu  6 Nov 2008.
  
- input  file    -> /home/gonze/ABINIT/ABINITv5.6.3/test_gcc43/5.6.3-private/tests/v1/Input/t52.in
- output file    -> t52.out
- root for input  files -> t51o
- root for output files -> t52o


 Symmetries : space group Pm m 2 (# 25); Bravais oP (primitive ortho.)
================================================================================
 Values of the parameters that define the memory need of the present run
   intxc =         1  ionmov =         0    iscf =         1 xclevel =         0
  lmnmax =         3   lnmax =         3   mband =         3  mffmem =         1
P  mgfft =        24   mkmem =         1 mpssoang=         2     mpw =       295
  mqgrid =      3001   natom =         2    nfft =      6144    nkpt =         1
  nloalg =         4  nspden =         1 nspinor =         1  nsppol =         1
    nsym =         4  n1xccc =         0  ntypat =         1  occopt =         1
================================================================================
P This job should need less than                       1.730 Mbytes of memory.
  Rough estimation (10% accuracy) of disk space for files :
  WF disk file :      0.016 Mbytes ; DEN or POT disk file :      0.049 Mbytes.
================================================================================

 -outvars: echo values of preprocessed input variables --------
     acell    1.8000000000E+01  1.1000000000E+01  1.1000000000E+01 Bohr
       amu    2.69815390E+01
    diemac    1.00000000E+00
      ecut    2.00000000E+00 Hartree
    enunit         2
     intxc         1
    irdwfk         1
      iscf         1
       ixc         0
       kpt    2.50000000E-01  2.50000000E-01  2.50000000E-01
P    mkmem         1
     natom         2
     nband         3
     ngfft        24      16      16
      nkpt         1
     nstep        20
      nsym         4
    ntypat         1
       occ    2.000000  2.000000  2.000000
   spgroup        25
    symrel    1  0  0   0  1  0   0  0  1       1  0  0   0  1  0   0  0 -1
              1  0  0   0 -1  0   0  0  1       1  0  0   0 -1  0   0  0 -1
    toldfe    1.00000000E-12 Hartree
     typat    1  1
    xangst    0.0000000000E+00  0.0000000000E+00  0.0000000000E+00
              3.1750632515E+00  0.0000000000E+00  0.0000000000E+00
     xcart    0.0000000000E+00  0.0000000000E+00  0.0000000000E+00
              6.0000000000E+00  0.0000000000E+00  0.0000000000E+00
      xred    0.0000000000E+00  0.0000000000E+00  0.0000000000E+00
              3.3333333333E-01  0.0000000000E+00  0.0000000000E+00
     znucl     13.00000

================================================================================

 chkinp: Checking input parameters for consistency.

================================================================================
== DATASET  1 ==================================================================

 Real(R)+Recip(G) space primitive vectors, cartesian coordinates (Bohr,Bohr^-1):
 R(1)= 18.0000000  0.0000000  0.0000000  G(1)=  0.0555556  0.0000000  0.0000000
 R(2)=  0.0000000 11.0000000  0.0000000  G(2)=  0.0000000  0.0909091  0.0000000
 R(3)=  0.0000000  0.0000000 11.0000000  G(3)=  0.0000000  0.0000000  0.0909091
 Unit cell volume ucvol=  2.1780000E+03 bohr^3
 Angles (23,13,12)=  9.00000000E+01  9.00000000E+01  9.00000000E+01 degrees

 getcut: wavevector=  0.0000  0.0000  0.0000  ngfft=  24  16  16
         ecut(hartree)=      2.000   => boxcut(ratio)=   2.09440

--- Pseudopotential description ------------------------------------------------
- pspini: atom type   1  psp file is /home/gonze/ABINIT/ABINITv5.6.3/test_gcc43/5.6.3-private/tests/Psps_for_tests/13al.pspgth
- pspatm: opening atomic psp file    /home/gonze/ABINIT/ABINITv5.6.3/test_gcc43/5.6.3-private/tests/Psps_for_tests/13al.pspgth
 Goedecker-Teter-Hutter  Tue May 28 09:24:05 EDT 1996
  13.00000   3.00000    960528                znucl, zion, pspdat
    2    1    1    0      2001   0.00000      pspcod,pspxc,lmax,lloc,mmax,r2well
 rloc=   0.4500000
  cc1=  -6.8340578; cc2=   0.0000000; cc3=   0.0000000; cc4=   0.0000000
  rrs=   0.4654363; h1s=   2.8140777; h2s=   1.9395165
  rrp=   0.5462433; h1p=   1.9160118
-  Local part computed in reciprocal space.

 pspatm : COMMENT -
  the projectors are not normalized,
  so that the KB energies are not consistent with
  definition in PRB44, 8503 (1991).
  However, this does not influence the results obtained hereafter.
 pspatm: epsatm=   -5.99108991
         --- l  ekb(1:nproj) -->
             0    1.005823    0.184862
             1    0.220213
 pspatm: atomic psp has been read  and splines computed

  -7.18930789E+01                                ecore*ucvol(ha*bohr**3)
--------------------------------------------------------------------------------

-inwffil : will read wavefunctions from disk file t51o_WFK
P newkpt: treating      3 bands with npw=     295 for ikpt=   1

 setup2: Arith. and geom. avg. npw (full set) are     295.000     295.000

================================================================================

     iter   Etot(hartree)      deltaE(h)  residm     vres2    diffor    maxfor
 ETOT  1  -2.7449107539164    -2.745E+00 5.848E-20 8.763E-13 8.764E-03 8.764E-03
 ETOT  2  -2.7449058226893     4.931E-06 7.274E-12 2.304E-03 8.139E-05 8.682E-03
 scfeig : Operator expectation value  -4.3398E+00 (extremal eigenvalue * diemix)
 scfeig : Inverse of renormalization factor  -3.9189E+00
 scfeig : Convergence criterion value (->0 at convergency)  -5.7910E-01
 ETOT  3  -2.7449052069924     6.157E-07 1.016E-09 3.155E-03 4.439E-05 8.638E-03
 scfeig : Operator expectation value  -5.5644E+00 (extremal eigenvalue * diemix)
 scfeig : Inverse of renormalization factor  -4.6285E+00
 scfeig : Convergence criterion value (->0 at convergency)  -6.4129E-02
 ETOT  4  -2.7449052626231    -5.563E-08 1.719E-10 3.253E-03 8.273E-06 8.630E-03
 scfeig : Operator expectation value  -5.6993E+00 (extremal eigenvalue * diemix)
 scfeig : Inverse of renormalization factor  -4.7044E+00
 scfeig : Convergence criterion value (->0 at convergency)  -5.0989E-03
 ETOT  5  -2.7449055007408    -2.381E-07 7.816E-11 3.171E-03 3.519E-07 8.630E-03
 scfeig : Operator expectation value  -5.6306E+00 (extremal eigenvalue * diemix)
 scfeig : Inverse of renormalization factor  -4.6312E+00
 scfeig : Convergence criterion value (->0 at convergency)  -5.8525E-04
 ETOT  6  -2.7449055577145    -5.697E-08 7.574E-12 3.154E-03 1.935E-07 8.630E-03
 scfeig : Operator expectation value  -5.6158E+00 (extremal eigenvalue * diemix)
 scfeig : Inverse of renormalization factor  -4.6159E+00
 scfeig : Convergence criterion value (->0 at convergency)  -7.1816E-05
 ETOT  7  -2.7449055877279    -3.001E-08 1.059E-12 3.142E-03 2.779E-07 8.630E-03
 scfeig : Operator expectation value  -5.6054E+00 (extremal eigenvalue * diemix)
 scfeig : Inverse of renormalization factor  -4.6054E+00
 scfeig : Convergence criterion value (->0 at convergency)  -8.2740E-06
 ETOT  8  -2.7449055926975    -4.970E-09 9.357E-14 3.141E-03 5.935E-08 8.630E-03
 scfeig : Operator expectation value  -5.6046E+00 (extremal eigenvalue * diemix)
 scfeig : Inverse of renormalization factor  -4.6046E+00
 scfeig : Convergence criterion value (->0 at convergency)  -1.4390E-06
 ETOT  9  -2.7449055992706    -6.573E-09 3.834E-14 3.138E-03 6.040E-08 8.630E-03
 scfeig : Operator expectation value  -5.6021E+00 (extremal eigenvalue * diemix)
 scfeig : Inverse of renormalization factor  -4.6021E+00
 scfeig : Convergence criterion value (->0 at convergency)  -2.8502E-07
 ETOT 10  -2.7449056002924    -1.022E-09 4.214E-15 3.138E-03 1.786E-08 8.630E-03
 scfeig : Operator expectation value  -5.6019E+00 (extremal eigenvalue * diemix)
 scfeig : Inverse of renormalization factor  -4.6019E+00
 scfeig : Convergence criterion value (->0 at convergency)  -7.1239E-08
 ETOT 11  -2.7449056018093    -1.517E-09 2.000E-15 3.138E-03 1.409E-08 8.630E-03
 scfeig : Operator expectation value  -5.6014E+00 (extremal eigenvalue * diemix)
 scfeig : Inverse of renormalization factor  -4.6014E+00
 scfeig : Convergence criterion value (->0 at convergency)  -2.3364E-08
 ETOT 12  -2.7449056020532    -2.439E-10 2.727E-16 3.137E-03 3.505E-09 8.630E-03
 scfeig : Operator expectation value  -5.6013E+00 (extremal eigenvalue * diemix)
 scfeig : Inverse of renormalization factor  -4.6013E+00
 scfeig : Convergence criterion value (->0 at convergency)  -7.7223E-09
 ETOT 13  -2.7449056023521    -2.988E-10 1.415E-16 3.137E-03 3.136E-09 8.630E-03
 scfeig : Operator expectation value  -5.6012E+00 (extremal eigenvalue * diemix)
 scfeig : Inverse of renormalization factor  -4.6012E+00
 scfeig : Convergence criterion value (->0 at convergency)  -4.0180E-09
 ETOT 14  -2.7449056023992    -4.716E-11 3.497E-17 3.137E-03 1.160E-09 8.630E-03
 scfeig : Operator expectation value  -5.6012E+00 (extremal eigenvalue * diemix)
 scfeig : Inverse of renormalization factor  -4.6012E+00
 scfeig : Convergence criterion value (->0 at convergency)  -1.9858E-09
 ETOT 15  -2.7449056024627    -6.343E-11 1.890E-17 3.137E-03 9.743E-10 8.630E-03
 scfeig : Operator expectation value  -5.6012E+00 (extremal eigenvalue * diemix)
 scfeig : Inverse of renormalization factor  -4.6012E+00
 scfeig : Convergence criterion value (->0 at convergency)  -1.2590E-09
 ETOT 16  -2.7449056024648    -2.147E-12 8.248E-18 3.137E-03 4.960E-10 8.630E-03
 scfeig : Operator expectation value  -5.6012E+00 (extremal eigenvalue * diemix)
 scfeig : Inverse of renormalization factor  -4.6012E+00
 scfeig : Convergence criterion value (->0 at convergency)  -8.6046E-10
 ETOT 17  -2.7449056024797    -1.491E-11 5.761E-18 3.137E-03 3.216E-10 8.630E-03
 scfeig : Operator expectation value  -5.6012E+00 (extremal eigenvalue * diemix)
 scfeig : Inverse of renormalization factor  -4.6012E+00
 scfeig : Convergence criterion value (->0 at convergency)  -6.9971E-10
 ETOT 18  -2.7449056024792     5.347E-13 6.193E-18 3.137E-03 1.380E-10 8.630E-03
 scfeig : Operator expectation value  -5.6012E+00 (extremal eigenvalue * diemix)
 scfeig : Inverse of renormalization factor  -4.6012E+00
 scfeig : Convergence criterion value (->0 at convergency)  -6.1409E-10
 ETOT 19  -2.7449056024817    -2.514E-12 6.291E-18 3.137E-03 5.145E-11 8.630E-03
 scfeig : Operator expectation value  -5.6012E+00 (extremal eigenvalue * diemix)
 scfeig : Inverse of renormalization factor  -4.6012E+00
 scfeig : Convergence criterion value (->0 at convergency)  -5.7774E-10
 ETOT 20  -2.7449056024822    -5.302E-13 6.343E-18 3.137E-03 1.447E-11 8.630E-03
 scfeig : Operator expectation value  -5.6012E+00 (extremal eigenvalue * diemix)
 scfeig : Inverse of renormalization factor  -4.6012E+00
 scfeig : Convergence criterion value (->0 at convergency)  -5.7558E-10

 Cartesian components of stress tensor (hartree/bohr^3)
  sigma(1 1)= -5.60922723E-06  sigma(3 2)=  0.00000000E+00
  sigma(2 2)=  1.29478875E-05  sigma(3 1)=  0.00000000E+00
  sigma(3 3)=  1.29478602E-05  sigma(2 1)=  0.00000000E+00

================================================================================

 ----iterations are completed or convergence reached----

 Mean square residual over all n,k,spin=   4.5163E-18; max=  6.3433E-18
   0.2500  0.2500  0.2500    1  6.34334E-18 kpt; spin; max resid(k); each band:
 6.02E-18 6.34E-18 1.18E-18
 reduced coordinates (array xred) for    2 atoms
       0.000000000000      0.000000000000      0.000000000000
       0.333333333333      0.000000000000      0.000000000000
 rms dE/dt=  8.9688E-02; max dE/dt=  1.5534E-01; dE/dt below (all hartree)
    1       0.155344500391      0.000000000000      0.000000000000
    2      -0.155344741127      0.000000000000      0.000000000000

 cartesian coordinates (angstrom) at end:
    1      0.00000000000000     0.00000000000000     0.00000000000000
    2      3.17506325154000     0.00000000000000     0.00000000000000

 cartesian forces (hartree/bohr) at end:
    1     -0.00863025670883    -0.00000000000000    -0.00000000000000
    2      0.00863025670883    -0.00000000000000    -0.00000000000000
 frms,max,avg= 4.9826810E-03 8.6302567E-03   6.687E-09  0.000E+00  0.000E+00 h/b

 cartesian forces (eV/Angstrom) at end:
    1     -0.44378560584676    -0.00000000000000    -0.00000000000000
    2      0.44378560584676    -0.00000000000000    -0.00000000000000
 frms,max,avg= 2.5621974E-01 4.4378561E-01   3.439E-07  0.000E+00  0.000E+00 e/A
 length scales= 18.000000000000 11.000000000000 11.000000000000 bohr
              =  9.525189754620  5.820949294490  5.820949294490 angstroms
 prteigrs : about to open file t52o_EIG
 Fermi (or HOMO) energy (hartree) =   0.09282   Average Vxc (hartree)=   0.00000
 Eigenvalues (hartree) for nkpt=   1  k points:
 kpt#   1, nband=  3, wtk=  1.00000, kpt=  0.2500  0.2500  0.2500 (reduced coord)
  -0.04614   0.00832   0.09282
 Fermi (or HOMO) energy (eV) =   2.52569   Average Vxc (eV)=   0.00000
 Eigenvalues (   eV  ) for nkpt=   1  k points:
 kpt#   1, nband=  3, wtk=  1.00000, kpt=  0.2500  0.2500  0.2500 (reduced coord)
  -1.25550   0.22652   2.52569
 Total charge density [el/Bohr^3]
,     Maximum=    2.1310E-02  at reduced coord.    0.2083    0.0000    0.0000
,Next maximum=    2.1310E-02  at reduced coord.    0.1250    0.0000    0.0000
,     Minimum=    2.7925E-04  at reduced coord.    0.6667    0.5000    0.5000
,Next minimum=    2.8288E-04  at reduced coord.    0.6667    0.4375    0.5000

--------------------------------------------------------------------------------
 Components of total free energy (in Hartree) :

    Kinetic energy  =  7.99095103550638E-01
    Hartree energy  =  6.98415208431954E-01
    XC energy       =  0.00000000000000E+00
    Ewald energy    = -2.12488219803672E+00
    PspCore energy  = -3.30087598421981E-02
    Loc. psp. energy= -3.27151241454338E+00
    NL   psp  energy=  1.18698745795747E+00
    >>>>>>>>> Etotal= -2.74490560248223E+00

 Other information on the energy :
    Total energy(eV)= -7.46926800086086E+01 ; Band energy (Ha)=   1.1000617015E-01
--------------------------------------------------------------------------------

 Cartesian components of stress tensor (hartree/bohr^3)
  sigma(1 1)= -5.60922723E-06  sigma(3 2)=  0.00000000E+00
  sigma(2 2)=  1.29478875E-05  sigma(3 1)=  0.00000000E+00
  sigma(3 3)=  1.29478602E-05  sigma(2 1)=  0.00000000E+00

-Cartesian components of stress tensor (GPa)         [Pressure= -1.9895E-01 GPa]
- sigma(1 1)= -1.65029135E-01  sigma(3 2)=  0.00000000E+00
- sigma(2 2)=  3.80939938E-01  sigma(3 1)=  0.00000000E+00
- sigma(3 3)=  3.80939136E-01  sigma(2 1)=  0.00000000E+00

== END DATASET(S) ==============================================================
================================================================================
  
 -outvars: echo values of variables after computation  --------
     acell    1.8000000000E+01  1.1000000000E+01  1.1000000000E+01 Bohr
       amu    2.69815390E+01
    diemac    1.00000000E+00
      ecut    2.00000000E+00 Hartree
    enunit         2
    etotal   -2.7449056025E+00
     fcart   -8.6302567088E-03 -0.0000000000E+00 -0.0000000000E+00
              8.6302567088E-03 -0.0000000000E+00 -0.0000000000E+00
     intxc         1
    irdwfk         1
      iscf         1
       ixc         0
       kpt    2.50000000E-01  2.50000000E-01  2.50000000E-01
P    mkmem         1
     natom         2
     nband         3
     ngfft        24      16      16
      nkpt         1
     nstep        20
      nsym         4
    ntypat         1
       occ    2.000000  2.000000  2.000000
   spgroup        25
    strten   -5.6092272318E-06  1.2947887489E-05  1.2947860224E-05
              0.0000000000E+00  0.0000000000E+00  0.0000000000E+00
    symrel    1  0  0   0  1  0   0  0  1       1  0  0   0  1  0   0  0 -1
              1  0  0   0 -1  0   0  0  1       1  0  0   0 -1  0   0  0 -1
    toldfe    1.00000000E-12 Hartree
     typat    1  1
    xangst    0.0000000000E+00  0.0000000000E+00  0.0000000000E+00
              3.1750632515E+00  0.0000000000E+00  0.0000000000E+00
     xcart    0.0000000000E+00  0.0000000000E+00  0.0000000000E+00
              6.0000000000E+00  0.0000000000E+00  0.0000000000E+00
      xred    0.0000000000E+00  0.0000000000E+00  0.0000000000E+00
              3.3333333333E-01  0.0000000000E+00  0.0000000000E+00
     znucl     13.00000

================================================================================

- Total cpu        time (s,m,h):          0.8        0.01      0.000
- Total wall clock time (s,m,h):          0.8        0.01      0.000

- For major independent code sections, cpu and wall times (sec),
- as well as % of the total time and number of calls 

- routine                 cpu     %       wall     %      number of calls 
-                                                          (-1=no count)
- timing timab           0.346  41.4      0.345  41.3             11
- invars2                0.108  12.9      0.108  12.9              1
- fourwf(pot)            0.093  11.1      0.090  10.8            329
- abinit(2)              0.031   3.7      0.031   3.7              1
- symrhg(no FFT)         0.031   3.7      0.027   3.2             21
- forces                 0.017   2.0      0.020   2.4             20
- fourwf(den)            0.013   1.6      0.008   1.0             63
- nonlop(apply)          0.013   1.6      0.013   1.6            329
- fourdp                 0.011   1.3      0.016   1.9             64
- getghc-other           0.008   1.0      0.004   0.5             -1
- vtorho-kpt loop        0.006   0.7      0.007   0.8             20
- ewald                  0.005   0.6      0.005   0.6              1
- vtowfk(ssdiag)         0.005   0.6      0.005   0.6             -1
- vtorho  (1)            0.005   0.6      0.001   0.1             20
- projbd                 0.005   0.6      0.007   0.8            526
- stress                 0.004   0.5      0.005   0.6              1
- 54   others            0.019   2.3      0.021   2.5

- subtotal               0.720  86.1      0.713  85.4

================================================================================

 Calculation completed.
.Delivered   28 WARNINGs and   3 COMMENTs to log file.
+Overall time at end (sec) : cpu=          0.8  wall=          0.8
