
.Version 5.6.3  of ABINIT 
.(sequential version, prepared for a x86_64_linux_gcc4.3 computer) 

.Copyright (C) 1998-2008 ABINIT group . 
 ABINIT comes with ABSOLUTELY NO WARRANTY.
 It is free software, and you are welcome to redistribute it
 under certain conditions (GNU General Public License,
 see ~abinit/COPYING or http://www.gnu.org/copyleft/gpl.txt).

 ABINIT is a project of the Universite Catholique de Louvain,
 Corning Inc. and other collaborators, see ~abinit/doc/developers/contributors.txt .
 Please read ~abinit/doc/users/acknowledgments.html for suggested
 acknowledgments of the ABINIT effort.
 For more information, see http://www.abinit.org .

.Starting date : Thu  6 Nov 2008.
  
- input  file    -> /home/gonze/ABINIT/ABINITv5.6.3/test_gcc43/5.6.3-private/tests/v1/Input/t56.in
- output file    -> t56.out
- root for input  files -> t55o
- root for output files -> t56o


 Symmetries : space group P4 m m (# 99); Bravais tP (primitive tetrag.)
================================================================================
 Values of the parameters that define the memory need of the present run
   intxc =         1  ionmov =         0    iscf =         1 xclevel =         0
  lmnmax =         2   lnmax =         2   mband =        20  mffmem =         1
P  mgfft =        45   mkmem =         1 mpssoang=         3     mpw =       276
  mqgrid =      3001   natom =         5    nfft =      6480    nkpt =         1
  nloalg =         4  nspden =         1 nspinor =         1  nsppol =         1
    nsym =         8  n1xccc =      2501  ntypat =         1  occopt =         4
================================================================================
P This job should need less than                       2.753 Mbytes of memory.
  Rough estimation (10% accuracy) of disk space for files :
  WF disk file :      0.086 Mbytes ; DEN or POT disk file :      0.051 Mbytes.
================================================================================

 -outvars: echo values of preprocessed input variables --------
     acell    6.0400000000E+00  6.0400000000E+00  2.4160000000E+01 Bohr
       amu    9.59400000E+01
      ecut    3.50000000E+00 Hartree
    enunit         2
     intxc         1
    irdwfk         1
      iscf         1
       ixc         0
       kpt    1.00000000E+00  1.00000000E+00  1.00000000E+00
    kptnrm    4.00000000E+00
P    mkmem         1
     natom         5
     nband        20
     ngfft        12      12      45
      nkpt         1
     nline         3
     nstep        12
      nsym         8
    ntypat         1
       occ    2.000000  2.000000  2.000000  2.000000  2.000000  2.000000
              2.000000  2.000000  2.000000  2.000000  2.000000  2.000000
              2.000000  2.000000  2.000000  0.000000  0.000000  0.000000
              0.000000  0.000000
    occopt         4
   spgroup        99
    symrel    1  0  0   0  1  0   0  0  1       0  1  0   1  0  0   0  0  1
              1  0  0   0 -1  0   0  0  1       0  1  0  -1  0  0   0  0  1
             -1  0  0   0  1  0   0  0  1       0 -1  0   1  0  0   0  0  1
             -1  0  0   0 -1  0   0  0  1       0 -1  0  -1  0  0   0  0  1
    toldfe    1.00000000E-12 Hartree
     typat    1  1  1  1  1
    xangst    0.0000000000E+00  0.0000000000E+00  1.2784921360E-02
              1.5981151699E+00  1.5981151699E+00  1.5981151699E+00
              0.0000000000E+00  0.0000000000E+00  3.1962303399E+00
              1.5981151699E+00  1.5981151699E+00 -1.5981151699E+00
              0.0000000000E+00  0.0000000000E+00 -3.1962303399E+00
     xcart    0.0000000000E+00  0.0000000000E+00  2.4160000000E-02
              3.0200000000E+00  3.0200000000E+00  3.0200000000E+00
              0.0000000000E+00  0.0000000000E+00  6.0400000000E+00
              3.0200000000E+00  3.0200000000E+00 -3.0200000000E+00
              0.0000000000E+00  0.0000000000E+00 -6.0400000000E+00
      xred    0.0000000000E+00  0.0000000000E+00  1.0000000000E-03
              5.0000000000E-01  5.0000000000E-01  1.2500000000E-01
              0.0000000000E+00  0.0000000000E+00  2.5000000000E-01
              5.0000000000E-01  5.0000000000E-01 -1.2500000000E-01
              0.0000000000E+00  0.0000000000E+00 -2.5000000000E-01
     znucl     42.00000

================================================================================

 chkinp: Checking input parameters for consistency.

================================================================================
== DATASET  1 ==================================================================

 Real(R)+Recip(G) space primitive vectors, cartesian coordinates (Bohr,Bohr^-1):
 R(1)=  6.0400000  0.0000000  0.0000000  G(1)=  0.1655629  0.0000000  0.0000000
 R(2)=  0.0000000  6.0400000  0.0000000  G(2)=  0.0000000  0.1655629  0.0000000
 R(3)=  0.0000000  0.0000000 24.1600000  G(3)=  0.0000000  0.0000000  0.0413907
 Unit cell volume ucvol=  8.8139546E+02 bohr^3
 Angles (23,13,12)=  9.00000000E+01  9.00000000E+01  9.00000000E+01 degrees

 getcut: wavevector=  0.0000  0.0000  0.0000  ngfft=  12  12  45
         ecut(hartree)=      3.500   => boxcut(ratio)=   2.16250

--- Pseudopotential description ------------------------------------------------
- pspini: atom type   1  psp file is /home/gonze/ABINIT/ABINITv5.6.3/test_gcc43/5.6.3-private/tests/Psps_for_tests/42mo.pspnc
- pspatm: opening atomic psp file    /home/gonze/ABINIT/ABINITv5.6.3/test_gcc43/5.6.3-private/tests/Psps_for_tests/42mo.pspnc
  Troullier-Martins psp for element  Mo        Thu Oct 27 17:40:28 EDT 1994
  42.00000   6.00000    940714                znucl, zion, pspdat
    1    1    2    0      2001   0.00000      pspcod,pspxc,lmax,lloc,mmax,r2well
    0   4.276   7.035    0   2.8930462        l,e99.0,e99.9,nproj,rcpsp
   0.00000000   0.00000000   0.00000000   0.00000000     rms, ekb1, ekb2, epsatm
    1   1.499   2.758    1   3.1973167        l,e99.0,e99.9,nproj,rcpsp
   0.00000000   0.00000000   0.00000000   0.00000000     rms, ekb1, ekb2, epsatm
    2  11.774  15.725    1   2.1974630        l,e99.0,e99.9,nproj,rcpsp
   0.00000000   0.00000000   0.00000000   0.00000000     rms, ekb1, ekb2, epsatm
    2.63204696240783    0.28531456933550    4.53995799271176   rchrg,fchrg,qchrg
 pspatm: epsatm=   89.23647829
         --- l  ekb(1:nproj) -->
             1    0.432305
             2   -4.457359
 pspatm: atomic psp has been read  and splines computed

   1.33854717E+04                                ecore*ucvol(ha*bohr**3)
--------------------------------------------------------------------------------

-inwffil : will read wavefunctions from disk file t55o_WFK
P newkpt: treating     20 bands with npw=     276 for ikpt=   1

 setup2: Arith. and geom. avg. npw (full set) are     276.000     276.000

================================================================================

     iter   Etot(hartree)      deltaE(h)  residm     vres2    diffor    maxfor
 ETOT  1  -22.158800808737    -2.216E+01 5.042E-12 8.290E-11 4.586E-01 4.586E-01
 ETOT  2  -22.158798044180     2.765E-06 3.906E-10 1.886E-03 2.370E-04 4.584E-01
 scfeig : Operator expectation value  -1.3116E+00 (extremal eigenvalue * diemix)
 scfeig : Inverse of renormalization factor  -4.3287E-01
 scfeig : Convergence criterion value (->0 at convergency)  -1.2130E-01
 ETOT  3  -22.158794581456     3.463E-06 4.727E-09 9.741E-03 6.125E-05 4.584E-01
 scfeig : Operator expectation value  -1.5918E+00 (extremal eigenvalue * diemix)
 scfeig : Inverse of renormalization factor  -6.3589E-01
 scfeig : Convergence criterion value (->0 at convergency)  -4.4126E-02
 ETOT  4  -22.158787878718     6.703E-06 5.744E-09 2.840E-02 1.175E-04 4.583E-01
 scfeig : Operator expectation value  -1.8418E+00 (extremal eigenvalue * diemix)
 scfeig : Inverse of renormalization factor  -9.4748E-01
 scfeig : Convergence criterion value (->0 at convergency)  -1.0567E-01
 ETOT  5  -22.158770825748     1.705E-05 1.455E-08 7.870E-02 1.987E-04 4.582E-01
 scfeig : Operator expectation value  -2.2989E+00 (extremal eigenvalue * diemix)
 scfeig : Inverse of renormalization factor  -1.3962E+00
 scfeig : Convergence criterion value (->0 at convergency)  -9.7354E-02
 ETOT  6  -22.158759685370     1.114E-05 6.255E-09 1.114E-01 1.323E-04 4.583E-01
 scfeig : Operator expectation value  -2.6071E+00 (extremal eigenvalue * diemix)
 scfeig : Inverse of renormalization factor  -1.6293E+00
 scfeig : Convergence criterion value (->0 at convergency)  -2.2186E-02
 ETOT  7  -22.158757300229     2.385E-06 3.088E-09 1.184E-01 4.513E-05 4.583E-01
 scfeig : Operator expectation value  -2.6706E+00 (extremal eigenvalue * diemix)
 scfeig : Inverse of renormalization factor  -1.6743E+00
 scfeig : Convergence criterion value (->0 at convergency)  -3.6601E-03
 ETOT  8  -22.158756906952     3.933E-07 1.093E-09 1.196E-01 1.527E-05 4.583E-01
 scfeig : Operator expectation value  -2.6811E+00 (extremal eigenvalue * diemix)
 scfeig : Inverse of renormalization factor  -1.6816E+00
 scfeig : Convergence criterion value (->0 at convergency)  -5.3170E-04
 ETOT  9  -22.158756844789     6.216E-08 5.106E-10 1.198E-01 4.712E-06 4.583E-01
 scfeig : Operator expectation value  -2.6827E+00 (extremal eigenvalue * diemix)
 scfeig : Inverse of renormalization factor  -1.6828E+00
 scfeig : Convergence criterion value (->0 at convergency)  -7.9571E-05
 ETOT 10  -22.158756834340     1.045E-08 1.850E-10 1.198E-01 1.796E-06 4.583E-01
 scfeig : Operator expectation value  -2.6829E+00 (extremal eigenvalue * diemix)
 scfeig : Inverse of renormalization factor  -1.6829E+00
 scfeig : Convergence criterion value (->0 at convergency)  -1.1769E-05
 ETOT 11  -22.158756832173     2.168E-09 8.768E-11 1.198E-01 6.098E-07 4.583E-01
 scfeig : Operator expectation value  -2.6830E+00 (extremal eigenvalue * diemix)
 scfeig : Inverse of renormalization factor  -1.6830E+00
 scfeig : Convergence criterion value (->0 at convergency)  -1.7867E-06
 ETOT 12  -22.158756831637     5.356E-10 3.375E-11 1.198E-01 2.289E-07 4.583E-01
 scfeig : Operator expectation value  -2.6830E+00 (extremal eigenvalue * diemix)
 scfeig : Inverse of renormalization factor  -1.6830E+00
 scfeig : Convergence criterion value (->0 at convergency)  -2.7278E-07

 Cartesian components of stress tensor (hartree/bohr^3)
  sigma(1 1)= -5.19024110E-03  sigma(3 2)=  0.00000000E+00
  sigma(2 2)= -5.19024110E-03  sigma(3 1)=  0.00000000E+00
  sigma(3 3)= -4.63161449E-03  sigma(2 1)=  0.00000000E+00


 scprqt:  WARNING -
  nstep=   12 was not enough SCF cycles to converge;
  maximum energy difference=  5.356E-10 exceeds toldfe=  1.000E-12

================================================================================

 ----iterations are completed or convergence reached----

 Mean square residual over all n,k,spin=   1.7056E-12; max=  3.3753E-11
   0.2500  0.2500  0.2500    1  3.37535E-11 kpt; spin; max resid(k); each band:
 1.39E-14 1.47E-14 1.89E-14 1.13E-14 1.23E-14 1.24E-14 1.29E-14 1.22E-14
 1.65E-14 2.27E-14 9.96E-15 1.29E-14 1.62E-14 3.11E-14 3.19E-14 1.27E-14
 2.28E-14 1.97E-14 5.25E-14 3.38E-11
 reduced coordinates (array xred) for    5 atoms
       0.000000000000      0.000000000000      0.001000000000
       0.500000000000      0.500000000000      0.125000000000
       0.000000000000      0.000000000000      0.250000000000
       0.500000000000      0.500000000000     -0.125000000000
       0.000000000000      0.000000000000     -0.250000000000
 rms dE/dt=  4.0721E+00; max dE/dt=  1.0981E+01; dE/dt below (all hartree)
    1       0.000000000000      0.000000000000      0.429682346957
    2       0.000000000000      0.000000000000     -1.799201760822
    3       0.000000000000      0.000000000000    -11.070783368529
    4       0.000000000000      0.000000000000      1.467414919497
    5       0.000000000000      0.000000000000     10.981335021304

 cartesian coordinates (angstrom) at end:
    1      0.00000000000000     0.00000000000000     0.01278492135953
    2      1.59811516994180     1.59811516994180     1.59811516994180
    3      0.00000000000000     0.00000000000000     3.19623033988360
    4      1.59811516994180     1.59811516994180    -1.59811516994180
    5      0.00000000000000     0.00000000000000    -3.19623033988360

 cartesian forces (hartree/bohr) at end:
    1     -0.00000000000000    -0.00000000000000    -0.01771493854619
    2     -0.00000000000000    -0.00000000000000     0.07454019836519
    3     -0.00000000000000    -0.00000000000000     0.45829771524050
    4     -0.00000000000000    -0.00000000000000    -0.06066744568772
    5     -0.00000000000000    -0.00000000000000    -0.45445552937178
 frms,max,avg= 1.6854618E-01 4.5829772E-01   0.000E+00  0.000E+00 -6.993E-05 h/b

 cartesian forces (eV/Angstrom) at end:
    1     -0.00000000000000    -0.00000000000000    -0.91093868936850
    2     -0.00000000000000    -0.00000000000000     3.83301079069566
    3     -0.00000000000000    -0.00000000000000    23.56661407394925
    4     -0.00000000000000    -0.00000000000000    -3.11964522586470
    5     -0.00000000000000    -0.00000000000000   -23.36904094941171
 frms,max,avg= 8.6669923E+00 2.3566614E+01   0.000E+00  0.000E+00 -3.596E-03 e/A
 length scales=  6.040000000000  6.040000000000 24.160000000000 bohr
              =  3.196230339884  3.196230339884 12.784921359534 angstroms
 prteigrs : about to open file t56o_EIG
 Fermi (or HOMO) energy (hartree) =   0.32938   Average Vxc (hartree)=   0.00000
 Eigenvalues (hartree) for nkpt=   1  k points:
 kpt#   1, nband= 20, wtk=  1.00000, kpt=  0.2500  0.2500  0.2500 (reduced coord)
  -0.08906  -0.02490   0.05515   0.11658   0.11879   0.13594   0.14999   0.19450
   0.19941   0.22084   0.23328   0.25850   0.28599   0.30316   0.30872   0.35223
   0.36052   0.36556   0.42880   0.47415
      occupation numbers for kpt#   1
   2.00000   2.00000   2.00000   2.00000   2.00000   2.00000   2.00000   2.00006
   2.00013   2.00223   2.00876   2.06738   2.12999   1.87220   1.70132   0.14670
   0.04968   0.02029   0.00127   0.00000
 Fermi (or HOMO) energy (eV) =   8.96283   Average Vxc (eV)=   0.00000
 Eigenvalues (   eV  ) for nkpt=   1  k points:
 kpt#   1, nband= 20, wtk=  1.00000, kpt=  0.2500  0.2500  0.2500 (reduced coord)
  -2.42344  -0.67763   1.50073   3.17236   3.23253   3.69911   4.08134   5.29254
   5.42631   6.00929   6.34787   7.03404   7.78209   8.24934   8.40061   9.58474
   9.81030   9.94731  11.66833  12.90215
 Total charge density [el/Bohr^3]
,     Maximum=    7.5191E-02  at reduced coord.    0.7500    0.7500    0.0667
,Next maximum=    7.5191E-02  at reduced coord.    0.2500    0.7500    0.0667
,     Minimum=    1.2955E-03  at reduced coord.    0.5000    0.5000    0.5111
,Next minimum=    1.2979E-03  at reduced coord.    0.5000    0.5000    0.4889

--------------------------------------------------------------------------------
 Components of total free energy (in Hartree) :

    Kinetic energy  =  1.53403379819368E+01
    Hartree energy  =  3.56148445147958E+01
    XC energy       =  0.00000000000000E+00
    Ewald energy    = -6.67573965170043E+00
    PspCore energy  =  1.51866811340423E+01
    Loc. psp. energy= -7.63830101961924E+01
    NL   psp  energy= -5.24941060774484E+00
    >>>>> Internal E= -2.21662968248627E+01

    -kT*entropy     =  7.53999322575122E-03
    >>>>>>>>> Etotal= -2.21587568316370E+01

 Other information on the energy :
    Total energy(eV)= -6.02970438006071E+02 ; Band energy (Ha)=   4.9375100711E+00
--------------------------------------------------------------------------------

 Cartesian components of stress tensor (hartree/bohr^3)
  sigma(1 1)= -5.19024110E-03  sigma(3 2)=  0.00000000E+00
  sigma(2 2)= -5.19024110E-03  sigma(3 1)=  0.00000000E+00
  sigma(3 3)= -4.63161449E-03  sigma(2 1)=  0.00000000E+00

-Cartesian components of stress tensor (GPa)         [Pressure=  1.4722E+02 GPa]
- sigma(1 1)= -1.52702140E+02  sigma(3 2)=  0.00000000E+00
- sigma(2 2)= -1.52702140E+02  sigma(3 1)=  0.00000000E+00
- sigma(3 3)= -1.36266780E+02  sigma(2 1)=  0.00000000E+00

== END DATASET(S) ==============================================================
================================================================================
  
 -outvars: echo values of variables after computation  --------
     acell    6.0400000000E+00  6.0400000000E+00  2.4160000000E+01 Bohr
       amu    9.59400000E+01
      ecut    3.50000000E+00 Hartree
    enunit         2
    etotal   -2.2158756832E+01
     fcart   -0.0000000000E+00 -0.0000000000E+00 -1.7714938546E-02
             -0.0000000000E+00 -0.0000000000E+00  7.4540198365E-02
             -0.0000000000E+00 -0.0000000000E+00  4.5829771524E-01
             -0.0000000000E+00 -0.0000000000E+00 -6.0667445688E-02
             -0.0000000000E+00 -0.0000000000E+00 -4.5445552937E-01
     intxc         1
    irdwfk         1
      iscf         1
       ixc         0
       kpt    1.00000000E+00  1.00000000E+00  1.00000000E+00
    kptnrm    4.00000000E+00
P    mkmem         1
     natom         5
     nband        20
     ngfft        12      12      45
      nkpt         1
     nline         3
     nstep        12
      nsym         8
    ntypat         1
       occ    2.000000  2.000000  2.000000  2.000000  2.000000  2.000000
              2.000000  2.000060  2.000127  2.002230  2.008760  2.067375
              2.129988  1.872202  1.701315  0.146698  0.049680  0.020287
              0.001274  0.000004
    occopt         4
   spgroup        99
    strten   -5.1902411025E-03 -5.1902411025E-03 -4.6316144924E-03
              0.0000000000E+00  0.0000000000E+00  0.0000000000E+00
    symrel    1  0  0   0  1  0   0  0  1       0  1  0   1  0  0   0  0  1
              1  0  0   0 -1  0   0  0  1       0  1  0  -1  0  0   0  0  1
             -1  0  0   0  1  0   0  0  1       0 -1  0   1  0  0   0  0  1
             -1  0  0   0 -1  0   0  0  1       0 -1  0  -1  0  0   0  0  1
    toldfe    1.00000000E-12 Hartree
     typat    1  1  1  1  1
    xangst    0.0000000000E+00  0.0000000000E+00  1.2784921360E-02
              1.5981151699E+00  1.5981151699E+00  1.5981151699E+00
              0.0000000000E+00  0.0000000000E+00  3.1962303399E+00
              1.5981151699E+00  1.5981151699E+00 -1.5981151699E+00
              0.0000000000E+00  0.0000000000E+00 -3.1962303399E+00
     xcart    0.0000000000E+00  0.0000000000E+00  2.4160000000E-02
              3.0200000000E+00  3.0200000000E+00  3.0200000000E+00
              0.0000000000E+00  0.0000000000E+00  6.0400000000E+00
              3.0200000000E+00  3.0200000000E+00 -3.0200000000E+00
              0.0000000000E+00  0.0000000000E+00 -6.0400000000E+00
      xred    0.0000000000E+00  0.0000000000E+00  1.0000000000E-03
              5.0000000000E-01  5.0000000000E-01  1.2500000000E-01
              0.0000000000E+00  0.0000000000E+00  2.5000000000E-01
              5.0000000000E-01  5.0000000000E-01 -1.2500000000E-01
              0.0000000000E+00  0.0000000000E+00 -2.5000000000E-01
     znucl     42.00000

================================================================================

- Total cpu        time (s,m,h):          2.1        0.03      0.001
- Total wall clock time (s,m,h):          2.1        0.03      0.001

- For major independent code sections, cpu and wall times (sec),
- as well as % of the total time and number of calls 

- routine                 cpu     %       wall     %      number of calls 
-                                                          (-1=no count)
- timing timab           0.501  24.1      0.500  24.0             12
- fourwf(pot)            0.335  16.1      0.340  16.3           1120
- pspini                 0.267  12.8      0.267  12.8              1
- vtowfk(ssdiag)         0.173   8.3      0.175   8.4             -1
- status                 0.140   6.7      0.137   6.6            420
- invars2                0.110   5.3      0.110   5.3              1
- projbd                 0.089   4.3      0.066   3.2           1680
- nonlop(apply)          0.088   4.2      0.101   4.9           1120
- forces                 0.085   4.1      0.086   4.1             12
- mkcore                 0.054   2.6      0.058   2.8             14
- fourwf(den)            0.045   2.2      0.046   2.2            260
- abinit(2)              0.031   1.5      0.032   1.5              1
- vtorho(4)-mkrho-       0.030   1.4      0.030   1.4             24
- nonlop(forces)         0.027   1.3      0.029   1.4            240
- stress                 0.022   1.1      0.021   1.0              1
- symrhg(no FFT)         0.018   0.9      0.018   0.9             13
- ewald                  0.018   0.9      0.018   0.9              1
- fourdp                 0.016   0.8      0.013   0.6             64
- ewald2                 0.016   0.8      0.015   0.7              1
- getghc-other           0.015   0.7      0.021   1.0             -1
- 50   others            0.029   1.4      0.023   1.1

- subtotal               2.109 101.2      2.106 101.2

================================================================================

 Calculation completed.
.Delivered   21 WARNINGs and   0 COMMENTs to log file.
+Overall time at end (sec) : cpu=          2.1  wall=          2.1
