
.Version 5.6.3  of ABINIT 
.(sequential version, prepared for a x86_64_linux_gcc4.3 computer) 

.Copyright (C) 1998-2008 ABINIT group . 
 ABINIT comes with ABSOLUTELY NO WARRANTY.
 It is free software, and you are welcome to redistribute it
 under certain conditions (GNU General Public License,
 see ~abinit/COPYING or http://www.gnu.org/copyleft/gpl.txt).

 ABINIT is a project of the Universite Catholique de Louvain,
 Corning Inc. and other collaborators, see ~abinit/doc/developers/contributors.txt .
 Please read ~abinit/doc/users/acknowledgments.html for suggested
 acknowledgments of the ABINIT effort.
 For more information, see http://www.abinit.org .

.Starting date : Thu  6 Nov 2008.
  
- input  file    -> /home/gonze/ABINIT/ABINITv5.6.3/test_gcc43/5.6.3-private/tests/v1/Input/t97.in
- output file    -> t97.out
- root for input  files -> t97i
- root for output files -> t97o


 Symmetries : space group P1 (#  1); Bravais aP (primitive triclinic)
================================================================================
 Values of the parameters that define the memory need of the present run
   intxc =         1  ionmov =         0    iscf =         5 xclevel =         1
  lmnmax =         2   lnmax =         2   mband =        16  mffmem =         1
P  mgfft =        16   mkmem =         4 mpssoang=         3     mpw =       272
  mqgrid =      3001   natom =         8    nfft =      4096    nkpt =         4
  nloalg =         4  nspden =         1 nspinor =         1  nsppol =         1
    nsym =         1  n1xccc =      2501  ntypat =         1  occopt =         0
================================================================================
P This job should need less than                       1.833 Mbytes of memory.
  Rough estimation (10% accuracy) of disk space for files :
  WF disk file :      0.268 Mbytes ; DEN or POT disk file :      0.033 Mbytes.
================================================================================

 -outvars: echo values of preprocessed input variables --------
     acell    1.0263110000E+01  1.0263110000E+01  1.0263110000E+01 Bohr
       amu    2.80855000E+01
   chkexit         2
    diemac    1.00000000E+00
    diemix    3.33333333E-01
      ecut    2.99000000E+00 Hartree
    enunit         2
     intxc         1
      iscf         5
       kpt    1.00000000E+00  1.00000000E+00  1.00000000E+00
             -1.00000000E+00  1.00000000E+00  1.00000000E+00
              1.00000000E+00 -1.00000000E+00  1.00000000E+00
              1.00000000E+00  1.00000000E+00 -1.00000000E+00
    kptnrm    4.00000000E+00
P    mkmem         4
     natom         8
     nband        16
     ngfft        16      16      16
      nkpt         4
     nline         2
     nstep        15
      nsym         1
    ntypat         1
       occ    2.000000  2.000000  2.000000  2.000000  2.000000  2.000000
              2.000000  2.000000  2.000000  2.000000  2.000000  2.000000
              2.000000  2.000000  2.000000  2.000000
    occopt         0
   spgroup         1
    tolwfr    1.00000000E-13
     typat    1  1  1  1  1  1  1  1
       wtk      0.25000    0.25000    0.25000    0.25000
    xangst    0.0000000000E+00  0.0000000000E+00  0.0000000000E+00
              1.3577509753E+00  1.3577509753E+00  1.3577509753E+00
              0.0000000000E+00  2.7155019506E+00  2.7155019506E+00
              1.3577509753E+00  4.0732529259E+00  4.0732529259E+00
              2.7155019506E+00  0.0000000000E+00  2.7155019506E+00
              4.0732529259E+00  1.3577509753E+00  4.0732529259E+00
              2.7155019506E+00  2.7155019506E+00  0.0000000000E+00
              4.0732529259E+00  4.0732529259E+00  1.3577509753E+00
     xcart    0.0000000000E+00  0.0000000000E+00  0.0000000000E+00
              2.5657775000E+00  2.5657775000E+00  2.5657775000E+00
              0.0000000000E+00  5.1315550000E+00  5.1315550000E+00
              2.5657775000E+00  7.6973325000E+00  7.6973325000E+00
              5.1315550000E+00  0.0000000000E+00  5.1315550000E+00
              7.6973325000E+00  2.5657775000E+00  7.6973325000E+00
              5.1315550000E+00  5.1315550000E+00  0.0000000000E+00
              7.6973325000E+00  7.6973325000E+00  2.5657775000E+00
      xred    0.0000000000E+00  0.0000000000E+00  0.0000000000E+00
              2.5000000000E-01  2.5000000000E-01  2.5000000000E-01
              0.0000000000E+00  5.0000000000E-01  5.0000000000E-01
              2.5000000000E-01  7.5000000000E-01  7.5000000000E-01
              5.0000000000E-01  0.0000000000E+00  5.0000000000E-01
              7.5000000000E-01  2.5000000000E-01  7.5000000000E-01
              5.0000000000E-01  5.0000000000E-01  0.0000000000E+00
              7.5000000000E-01  7.5000000000E-01  2.5000000000E-01
     znucl     14.00000

================================================================================

 chkinp: Checking input parameters for consistency.

================================================================================
== DATASET  1 ==================================================================

 Real(R)+Recip(G) space primitive vectors, cartesian coordinates (Bohr,Bohr^-1):
 R(1)= 10.2631100  0.0000000  0.0000000  G(1)=  0.0974364  0.0000000  0.0000000
 R(2)=  0.0000000 10.2631100  0.0000000  G(2)=  0.0000000  0.0974364  0.0000000
 R(3)=  0.0000000  0.0000000 10.2631100  G(3)=  0.0000000  0.0000000  0.0974364
 Unit cell volume ucvol=  1.0810280E+03 bohr^3
 Angles (23,13,12)=  9.00000000E+01  9.00000000E+01  9.00000000E+01 degrees

 getcut: wavevector=  0.0000  0.0000  0.0000  ngfft=  16  16  16
         ecut(hartree)=      2.990   => boxcut(ratio)=   2.00281

--- Pseudopotential description ------------------------------------------------
- pspini: atom type   1  psp file is /home/gonze/ABINIT/ABINITv5.6.3/test_gcc43/5.6.3-private/tests/Psps_for_tests/14si.pspnc
- pspatm: opening atomic psp file    /home/gonze/ABINIT/ABINITv5.6.3/test_gcc43/5.6.3-private/tests/Psps_for_tests/14si.pspnc
  Troullier-Martins psp for element  Si        Thu Oct 27 17:31:21 EDT 1994
  14.00000   4.00000    940714                znucl, zion, pspdat
    1    1    2    2      2001   0.00000      pspcod,pspxc,lmax,lloc,mmax,r2well
    0   5.907  14.692    1   2.0872718        l,e99.0,e99.9,nproj,rcpsp
   0.00000000   0.00000000   0.00000000   0.00000000     rms, ekb1, ekb2, epsatm
    1   2.617   4.181    1   2.0872718        l,e99.0,e99.9,nproj,rcpsp
   0.00000000   0.00000000   0.00000000   0.00000000     rms, ekb1, ekb2, epsatm
    2   0.000   0.000    0   2.0872718        l,e99.0,e99.9,nproj,rcpsp
   0.00000000   0.00000000   0.00000000   0.00000000     rms, ekb1, ekb2, epsatm
    1.80626423934776    0.22824404341771    1.17378968127746   rchrg,fchrg,qchrg
 pspatm: epsatm=    1.43386982
         --- l  ekb(1:nproj) -->
             0    3.287949
             1    1.849886
 pspatm: atomic psp has been read  and splines computed

   3.67070674E+02                                ecore*ucvol(ha*bohr**3)
--------------------------------------------------------------------------------

P newkpt: treating     16 bands with npw=     272 for ikpt=   1
P newkpt: treating     16 bands with npw=     272 for ikpt=   2
P newkpt: treating     16 bands with npw=     272 for ikpt=   3
P newkpt: treating     16 bands with npw=     272 for ikpt=   4

 setup2: Arith. and geom. avg. npw (full set) are     272.000     272.000

 chkexi: WARNING -
  Exit has been requested from file "abinit.exit".

================================================================================

 ----iterations are completed or convergence reached----

 Mean square residual over all n,k,spin=   0.0000E+00; max=  0.0000E+00
   0.2500  0.2500  0.2500    1  0.00000E+00 kpt; spin; max resid(k); each band:
 0.00E+00 0.00E+00 0.00E+00 0.00E+00 0.00E+00 0.00E+00 0.00E+00 0.00E+00
 0.00E+00 0.00E+00 0.00E+00 0.00E+00 0.00E+00 0.00E+00 0.00E+00 0.00E+00
  -0.2500  0.2500  0.2500    1  0.00000E+00 kpt; spin; max resid(k); each band:
 0.00E+00 0.00E+00 0.00E+00 0.00E+00 0.00E+00 0.00E+00 0.00E+00 0.00E+00
 0.00E+00 0.00E+00 0.00E+00 0.00E+00 0.00E+00 0.00E+00 0.00E+00 0.00E+00
   0.2500 -0.2500  0.2500    1  0.00000E+00 kpt; spin; max resid(k); each band:
 0.00E+00 0.00E+00 0.00E+00 0.00E+00 0.00E+00 0.00E+00 0.00E+00 0.00E+00
 0.00E+00 0.00E+00 0.00E+00 0.00E+00 0.00E+00 0.00E+00 0.00E+00 0.00E+00
   0.2500  0.2500 -0.2500    1  0.00000E+00 kpt; spin; max resid(k); each band:
 0.00E+00 0.00E+00 0.00E+00 0.00E+00 0.00E+00 0.00E+00 0.00E+00 0.00E+00
 0.00E+00 0.00E+00 0.00E+00 0.00E+00 0.00E+00 0.00E+00 0.00E+00 0.00E+00
 reduced coordinates (array xred) for    8 atoms
       0.000000000000      0.000000000000      0.000000000000
       0.250000000000      0.250000000000      0.250000000000
       0.000000000000      0.500000000000      0.500000000000
       0.250000000000      0.750000000000      0.750000000000
       0.500000000000      0.000000000000      0.500000000000
       0.750000000000      0.250000000000      0.750000000000
       0.500000000000      0.500000000000      0.000000000000
       0.750000000000      0.750000000000      0.250000000000
 rms dE/dt=  0.0000E+00; max dE/dt=  0.0000E+00; dE/dt below (all hartree)
    1       0.000000000000      0.000000000000      0.000000000000
    2       0.000000000000      0.000000000000      0.000000000000
    3       0.000000000000      0.000000000000      0.000000000000
    4       0.000000000000      0.000000000000      0.000000000000
    5       0.000000000000      0.000000000000      0.000000000000
    6       0.000000000000      0.000000000000      0.000000000000
    7       0.000000000000      0.000000000000      0.000000000000
    8       0.000000000000      0.000000000000      0.000000000000

 cartesian coordinates (angstrom) at end:
    1      0.00000000000000     0.00000000000000     0.00000000000000
    2      1.35775097531303     1.35775097531303     1.35775097531303
    3      0.00000000000000     2.71550195062606     2.71550195062606
    4      1.35775097531303     4.07325292593909     4.07325292593909
    5      2.71550195062606     0.00000000000000     2.71550195062606
    6      4.07325292593909     1.35775097531303     4.07325292593909
    7      2.71550195062606     2.71550195062606     0.00000000000000
    8      4.07325292593909     4.07325292593909     1.35775097531303

 cartesian forces (hartree/bohr) at end:
    1     -0.00000000000000    -0.00000000000000    -0.00000000000000
    2     -0.00000000000000    -0.00000000000000    -0.00000000000000
    3     -0.00000000000000    -0.00000000000000    -0.00000000000000
    4     -0.00000000000000    -0.00000000000000    -0.00000000000000
    5     -0.00000000000000    -0.00000000000000    -0.00000000000000
    6     -0.00000000000000    -0.00000000000000    -0.00000000000000
    7     -0.00000000000000    -0.00000000000000    -0.00000000000000
    8     -0.00000000000000    -0.00000000000000    -0.00000000000000
 frms,max,avg= 0.0000000E+00 0.0000000E+00   0.000E+00  0.000E+00  0.000E+00 h/b

 cartesian forces (eV/Angstrom) at end:
    1     -0.00000000000000    -0.00000000000000    -0.00000000000000
    2     -0.00000000000000    -0.00000000000000    -0.00000000000000
    3     -0.00000000000000    -0.00000000000000    -0.00000000000000
    4     -0.00000000000000    -0.00000000000000    -0.00000000000000
    5     -0.00000000000000    -0.00000000000000    -0.00000000000000
    6     -0.00000000000000    -0.00000000000000    -0.00000000000000
    7     -0.00000000000000    -0.00000000000000    -0.00000000000000
    8     -0.00000000000000    -0.00000000000000    -0.00000000000000
 frms,max,avg= 0.0000000E+00 0.0000000E+00   0.000E+00  0.000E+00  0.000E+00 e/A
 length scales= 10.263110000000 10.263110000000 10.263110000000 bohr
              =  5.431003901252  5.431003901252  5.431003901252 angstroms
 prteigrs : about to open file t97o_EIG
 Fermi (or HOMO) energy (hartree) =   0.00000   Average Vxc (hartree)=   0.00000
 Eigenvalues (hartree) for nkpt=   4  k points:
 kpt#   1, nband= 16, wtk=  0.25000, kpt=  0.2500  0.2500  0.2500 (reduced coord)
   0.00000   0.00000   0.00000   0.00000   0.00000   0.00000   0.00000   0.00000
   0.00000   0.00000   0.00000   0.00000   0.00000   0.00000   0.00000   0.00000
 kpt#   2, nband= 16, wtk=  0.25000, kpt= -0.2500  0.2500  0.2500 (reduced coord)
   0.00000   0.00000   0.00000   0.00000   0.00000   0.00000   0.00000   0.00000
   0.00000   0.00000   0.00000   0.00000   0.00000   0.00000   0.00000   0.00000
 kpt#   3, nband= 16, wtk=  0.25000, kpt=  0.2500 -0.2500  0.2500 (reduced coord)
   0.00000   0.00000   0.00000   0.00000   0.00000   0.00000   0.00000   0.00000
   0.00000   0.00000   0.00000   0.00000   0.00000   0.00000   0.00000   0.00000
 kpt#   4, nband= 16, wtk=  0.25000, kpt=  0.2500  0.2500 -0.2500 (reduced coord)
   0.00000   0.00000   0.00000   0.00000   0.00000   0.00000   0.00000   0.00000
   0.00000   0.00000   0.00000   0.00000   0.00000   0.00000   0.00000   0.00000
 Fermi (or HOMO) energy (eV) =   0.00000   Average Vxc (eV)=   0.00000
 Eigenvalues (   eV  ) for nkpt=   4  k points:
 kpt#   1, nband= 16, wtk=  0.25000, kpt=  0.2500  0.2500  0.2500 (reduced coord)
   0.00000   0.00000   0.00000   0.00000   0.00000   0.00000   0.00000   0.00000
   0.00000   0.00000   0.00000   0.00000   0.00000   0.00000   0.00000   0.00000
 kpt#   2, nband= 16, wtk=  0.25000, kpt= -0.2500  0.2500  0.2500 (reduced coord)
   0.00000   0.00000   0.00000   0.00000   0.00000   0.00000   0.00000   0.00000
   0.00000   0.00000   0.00000   0.00000   0.00000   0.00000   0.00000   0.00000
 kpt#   3, nband= 16, wtk=  0.25000, kpt=  0.2500 -0.2500  0.2500 (reduced coord)
   0.00000   0.00000   0.00000   0.00000   0.00000   0.00000   0.00000   0.00000
   0.00000   0.00000   0.00000   0.00000   0.00000   0.00000   0.00000   0.00000
 kpt#   4, nband= 16, wtk=  0.25000, kpt=  0.2500  0.2500 -0.2500 (reduced coord)
   0.00000   0.00000   0.00000   0.00000   0.00000   0.00000   0.00000   0.00000
   0.00000   0.00000   0.00000   0.00000   0.00000   0.00000   0.00000   0.00000
 Total charge density [el/Bohr^3]
,     Maximum=    7.2039E-02  at reduced coord.    0.2500    0.7500    0.7500
,Next maximum=    7.2039E-02  at reduced coord.    0.7500    0.2500    0.7500
,     Minimum=    6.3159E-03  at reduced coord.    0.5000    0.0000    0.0000
,Next minimum=    6.3159E-03  at reduced coord.    0.0000    0.5000    0.0000

--------------------------------------------------------------------------------
 Components of total free energy (in Hartree) :

    Kinetic energy  =  0.00000000000000E+00
    Hartree energy  =  0.00000000000000E+00
    XC energy       =  0.00000000000000E+00
    Ewald energy    =  0.00000000000000E+00
    PspCore energy  =  0.00000000000000E+00
    Loc. psp. energy=  0.00000000000000E+00
    NL   psp  energy=  0.00000000000000E+00
    >>>>>>>>> Etotal=  0.00000000000000E+00

 Other information on the energy :
    Total energy(eV)=  0.00000000000000E+00 ; Band energy (Ha)=   0.0000000000E+00
--------------------------------------------------------------------------------

 Cartesian components of stress tensor (hartree/bohr^3)
  sigma(1 1)=  0.00000000E+00  sigma(3 2)=  0.00000000E+00
  sigma(2 2)=  0.00000000E+00  sigma(3 1)=  0.00000000E+00
  sigma(3 3)=  0.00000000E+00  sigma(2 1)=  0.00000000E+00

-Cartesian components of stress tensor (GPa)         [Pressure= -0.0000E+00 GPa]
- sigma(1 1)=  0.00000000E+00  sigma(3 2)=  0.00000000E+00
- sigma(2 2)=  0.00000000E+00  sigma(3 1)=  0.00000000E+00
- sigma(3 3)=  0.00000000E+00  sigma(2 1)=  0.00000000E+00

== END DATASET(S) ==============================================================
================================================================================
  
 -outvars: echo values of variables after computation  --------
     acell    1.0263110000E+01  1.0263110000E+01  1.0263110000E+01 Bohr
       amu    2.80855000E+01
   chkexit         2
    diemac    1.00000000E+00
    diemix    3.33333333E-01
      ecut    2.99000000E+00 Hartree
    enunit         2
    etotal    0.0000000000E+00
     fcart    0.0000000000E+00  0.0000000000E+00  0.0000000000E+00
              0.0000000000E+00  0.0000000000E+00  0.0000000000E+00
              0.0000000000E+00  0.0000000000E+00  0.0000000000E+00
              0.0000000000E+00  0.0000000000E+00  0.0000000000E+00
              0.0000000000E+00  0.0000000000E+00  0.0000000000E+00
              0.0000000000E+00  0.0000000000E+00  0.0000000000E+00
              0.0000000000E+00  0.0000000000E+00  0.0000000000E+00
              0.0000000000E+00  0.0000000000E+00  0.0000000000E+00
     intxc         1
      iscf         5
       kpt    1.00000000E+00  1.00000000E+00  1.00000000E+00
             -1.00000000E+00  1.00000000E+00  1.00000000E+00
              1.00000000E+00 -1.00000000E+00  1.00000000E+00
              1.00000000E+00  1.00000000E+00 -1.00000000E+00
    kptnrm    4.00000000E+00
P    mkmem         4
     natom         8
     nband        16
     ngfft        16      16      16
      nkpt         4
     nline         2
     nstep        15
      nsym         1
    ntypat         1
       occ    2.000000  2.000000  2.000000  2.000000  2.000000  2.000000
              2.000000  2.000000  2.000000  2.000000  2.000000  2.000000
              2.000000  2.000000  2.000000  2.000000
    occopt         0
   spgroup         1
    strten    0.0000000000E+00  0.0000000000E+00  0.0000000000E+00
              0.0000000000E+00  0.0000000000E+00  0.0000000000E+00
    tolwfr    1.00000000E-13
     typat    1  1  1  1  1  1  1  1
       wtk      0.25000    0.25000    0.25000    0.25000
    xangst    0.0000000000E+00  0.0000000000E+00  0.0000000000E+00
              1.3577509753E+00  1.3577509753E+00  1.3577509753E+00
              0.0000000000E+00  2.7155019506E+00  2.7155019506E+00
              1.3577509753E+00  4.0732529259E+00  4.0732529259E+00
              2.7155019506E+00  0.0000000000E+00  2.7155019506E+00
              4.0732529259E+00  1.3577509753E+00  4.0732529259E+00
              2.7155019506E+00  2.7155019506E+00  0.0000000000E+00
              4.0732529259E+00  4.0732529259E+00  1.3577509753E+00
     xcart    0.0000000000E+00  0.0000000000E+00  0.0000000000E+00
              2.5657775000E+00  2.5657775000E+00  2.5657775000E+00
              0.0000000000E+00  5.1315550000E+00  5.1315550000E+00
              2.5657775000E+00  7.6973325000E+00  7.6973325000E+00
              5.1315550000E+00  0.0000000000E+00  5.1315550000E+00
              7.6973325000E+00  2.5657775000E+00  7.6973325000E+00
              5.1315550000E+00  5.1315550000E+00  0.0000000000E+00
              7.6973325000E+00  7.6973325000E+00  2.5657775000E+00
      xred    0.0000000000E+00  0.0000000000E+00  0.0000000000E+00
              2.5000000000E-01  2.5000000000E-01  2.5000000000E-01
              0.0000000000E+00  5.0000000000E-01  5.0000000000E-01
              2.5000000000E-01  7.5000000000E-01  7.5000000000E-01
              5.0000000000E-01  0.0000000000E+00  5.0000000000E-01
              7.5000000000E-01  2.5000000000E-01  7.5000000000E-01
              5.0000000000E-01  5.0000000000E-01  0.0000000000E+00
              7.5000000000E-01  7.5000000000E-01  2.5000000000E-01
     znucl     14.00000

================================================================================

- Total cpu        time (s,m,h):          1.0        0.02      0.000
- Total wall clock time (s,m,h):          1.0        0.02      0.000

- For major independent code sections, cpu and wall times (sec),
- as well as % of the total time and number of calls 

- routine                 cpu     %       wall     %      number of calls 
-                                                          (-1=no count)
- timing timab           0.499  51.9      0.500  52.0             12
- pspini                 0.228  23.7      0.227  23.6              1
- invars2                0.110  11.4      0.111  11.5              1
- abinit(2)              0.032   3.3      0.032   3.3              1
- inwffil                0.005   0.5      0.005   0.5              1
- 65   others            0.004   0.4      0.002   0.2

- subtotal               0.878  91.3      0.877  91.2

================================================================================

 Calculation completed.
.Delivered    1 WARNINGs and   1 COMMENTs to log file.
 Note : exit requested by the user.
+Overall time at end (sec) : cpu=          1.0  wall=          1.0
