
.Version 5.6.3  of ABINIT 
.(sequential version, prepared for a x86_64_linux_gcc4.3 computer) 

.Copyright (C) 1998-2008 ABINIT group . 
 ABINIT comes with ABSOLUTELY NO WARRANTY.
 It is free software, and you are welcome to redistribute it
 under certain conditions (GNU General Public License,
 see ~abinit/COPYING or http://www.gnu.org/copyleft/gpl.txt).

 ABINIT is a project of the Universite Catholique de Louvain,
 Corning Inc. and other collaborators, see ~abinit/doc/developers/contributors.txt .
 Please read ~abinit/doc/users/acknowledgments.html for suggested
 acknowledgments of the ABINIT effort.
 For more information, see http://www.abinit.org .

.Starting date : Thu  6 Nov 2008.
  
- input  file    -> /home/gonze/ABINIT/ABINITv5.6.3/test_gcc43/5.6.3-private/tests/v1/Input/t98.in
- output file    -> t98.out
- root for input  files -> t98i
- root for output files -> t98o


 Symmetries : space group P1 (#  1); Bravais aP (primitive triclinic)
================================================================================
 Values of the parameters that define the memory need of the present run
   intxc =         1  ionmov =         0    iscf =         5 xclevel =         1
  lmnmax =         2   lnmax =         2   mband =        16  mffmem =         1
P  mgfft =        20   mkmem =         4 mpssoang=         3     mpw =       416
  mqgrid =      3001   natom =         8    nfft =      8000    nkpt =         4
  nloalg =         4  nspden =         1 nspinor =         1  nsppol =         1
    nsym =         1  n1xccc =      2501  ntypat =         1  occopt =         0
================================================================================
P This job should need less than                       2.841 Mbytes of memory.
  Rough estimation (10% accuracy) of disk space for files :
  WF disk file :      0.408 Mbytes ; DEN or POT disk file :      0.063 Mbytes.
================================================================================

 -outvars: echo values of preprocessed input variables --------
     acell    1.0263110000E+01  1.0263110000E+01  1.0263110000E+01 Bohr
       amu    2.80855000E+01
      cpus     10.      (seconds)
      cpum    0.17      (minutes)
      cpuh    2.78E-03  (hours)
    diemac    1.00000000E+00
    diemix    3.33333333E-01
      ecut    3.99000000E+00 Hartree
    enunit         2
     intxc         1
      iscf         5
    isecur        -4
       kpt    1.00000000E+00  1.00000000E+00  1.00000000E+00
             -1.00000000E+00  1.00000000E+00  1.00000000E+00
              1.00000000E+00 -1.00000000E+00  1.00000000E+00
              1.00000000E+00  1.00000000E+00 -1.00000000E+00
    kptnrm    4.00000000E+00
P    mkmem         4
     natom         8
     nband        16
     ngfft        20      20      20
      nkpt         4
     nstep        40
      nsym         1
    ntypat         1
       occ    2.000000  2.000000  2.000000  2.000000  2.000000  2.000000
              2.000000  2.000000  2.000000  2.000000  2.000000  2.000000
              2.000000  2.000000  2.000000  2.000000
    occopt         0
   spgroup         1
    tolwfr    1.00000000E-24
     typat    1  1  1  1  1  1  1  1
       wtk      0.25000    0.25000    0.25000    0.25000
    xangst    0.0000000000E+00  0.0000000000E+00  0.0000000000E+00
              1.3577509753E+00  1.3577509753E+00  1.3577509753E+00
              0.0000000000E+00  2.7155019506E+00  2.7155019506E+00
              1.3577509753E+00  4.0732529259E+00  4.0732529259E+00
              2.7155019506E+00  0.0000000000E+00  2.7155019506E+00
              4.0732529259E+00  1.3577509753E+00  4.0732529259E+00
              2.7155019506E+00  2.7155019506E+00  0.0000000000E+00
              4.0732529259E+00  4.0732529259E+00  1.3577509753E+00
     xcart    0.0000000000E+00  0.0000000000E+00  0.0000000000E+00
              2.5657775000E+00  2.5657775000E+00  2.5657775000E+00
              0.0000000000E+00  5.1315550000E+00  5.1315550000E+00
              2.5657775000E+00  7.6973325000E+00  7.6973325000E+00
              5.1315550000E+00  0.0000000000E+00  5.1315550000E+00
              7.6973325000E+00  2.5657775000E+00  7.6973325000E+00
              5.1315550000E+00  5.1315550000E+00  0.0000000000E+00
              7.6973325000E+00  7.6973325000E+00  2.5657775000E+00
      xred    0.0000000000E+00  0.0000000000E+00  0.0000000000E+00
              2.5000000000E-01  2.5000000000E-01  2.5000000000E-01
              0.0000000000E+00  5.0000000000E-01  5.0000000000E-01
              2.5000000000E-01  7.5000000000E-01  7.5000000000E-01
              5.0000000000E-01  0.0000000000E+00  5.0000000000E-01
              7.5000000000E-01  2.5000000000E-01  7.5000000000E-01
              5.0000000000E-01  5.0000000000E-01  0.0000000000E+00
              7.5000000000E-01  7.5000000000E-01  2.5000000000E-01
     znucl     14.00000

================================================================================

 chkinp: Checking input parameters for consistency.

================================================================================
== DATASET  1 ==================================================================

 Real(R)+Recip(G) space primitive vectors, cartesian coordinates (Bohr,Bohr^-1):
 R(1)= 10.2631100  0.0000000  0.0000000  G(1)=  0.0974364  0.0000000  0.0000000
 R(2)=  0.0000000 10.2631100  0.0000000  G(2)=  0.0000000  0.0974364  0.0000000
 R(3)=  0.0000000  0.0000000 10.2631100  G(3)=  0.0000000  0.0000000  0.0974364
 Unit cell volume ucvol=  1.0810280E+03 bohr^3
 Angles (23,13,12)=  9.00000000E+01  9.00000000E+01  9.00000000E+01 degrees

 getcut: wavevector=  0.0000  0.0000  0.0000  ngfft=  20  20  20
         ecut(hartree)=      3.990   => boxcut(ratio)=   2.16720

--- Pseudopotential description ------------------------------------------------
- pspini: atom type   1  psp file is /home/gonze/ABINIT/ABINITv5.6.3/test_gcc43/5.6.3-private/tests/Psps_for_tests/14si.pspnc
- pspatm: opening atomic psp file    /home/gonze/ABINIT/ABINITv5.6.3/test_gcc43/5.6.3-private/tests/Psps_for_tests/14si.pspnc
  Troullier-Martins psp for element  Si        Thu Oct 27 17:31:21 EDT 1994
  14.00000   4.00000    940714                znucl, zion, pspdat
    1    1    2    2      2001   0.00000      pspcod,pspxc,lmax,lloc,mmax,r2well
    0   5.907  14.692    1   2.0872718        l,e99.0,e99.9,nproj,rcpsp
   0.00000000   0.00000000   0.00000000   0.00000000     rms, ekb1, ekb2, epsatm
    1   2.617   4.181    1   2.0872718        l,e99.0,e99.9,nproj,rcpsp
   0.00000000   0.00000000   0.00000000   0.00000000     rms, ekb1, ekb2, epsatm
    2   0.000   0.000    0   2.0872718        l,e99.0,e99.9,nproj,rcpsp
   0.00000000   0.00000000   0.00000000   0.00000000     rms, ekb1, ekb2, epsatm
    1.80626423934776    0.22824404341771    1.17378968127746   rchrg,fchrg,qchrg
 pspatm: epsatm=    1.43386982
         --- l  ekb(1:nproj) -->
             0    3.287949
             1    1.849886
 pspatm: atomic psp has been read  and splines computed

   3.67070674E+02                                ecore*ucvol(ha*bohr**3)
--------------------------------------------------------------------------------

P newkpt: treating     16 bands with npw=     416 for ikpt=   1
P newkpt: treating     16 bands with npw=     416 for ikpt=   2
P newkpt: treating     16 bands with npw=     416 for ikpt=   3
P newkpt: treating     16 bands with npw=     416 for ikpt=   4

 setup2: Arith. and geom. avg. npw (full set) are     416.000     416.000

================================================================================

     iter   Etot(hartree)      deltaE(h)  residm     vres2    diffor    maxfor
 ETOT  1  -35.302090403588    -3.530E+01 4.806E-03 5.252E+00 2.541E-03 2.541E-03
 ETOT  2  -35.318983760177    -1.689E-02 8.568E-09 1.701E+00 2.689E-03 2.241E-04
 ETOT  3  -35.324034257396    -5.050E-03 4.588E-06 1.317E-01 2.634E-04 4.875E-04
 ETOT  4  -35.324248980324    -2.147E-04 7.878E-07 3.905E-02 3.681E-04 1.474E-04
 ETOT  5  -35.324290167238    -4.119E-05 2.628E-07 2.588E-02 2.003E-04 8.160E-05
 ETOT  6  -35.324332296070    -4.213E-05 3.457E-07 5.486E-03 7.993E-05 2.121E-05
 ETOT  7  -35.324344039882    -1.174E-05 2.398E-08 1.517E-04 2.224E-05 9.450E-06
 ETOT  8  -35.324344309999    -2.701E-07 7.251E-10 2.339E-05 1.308E-05 7.122E-06
 ETOT  9  -35.324344364285    -5.429E-08 1.740E-10 5.153E-06 4.363E-06 3.152E-06
 ETOT 10  -35.324344373910    -9.625E-09 3.062E-11 9.694E-07 2.395E-06 7.571E-07
 ETOT 11  -35.324344375133    -1.223E-09 4.287E-12 1.681E-07 6.418E-07 1.209E-07
 ETOT 12  -35.324344375291    -1.584E-10 2.982E-13 2.754E-08 3.231E-07 2.077E-07
 ETOT 13  -35.324344375334    -4.263E-11 1.069E-13 4.742E-09 1.484E-07 7.776E-08
 ETOT 14  -35.324344375340    -5.656E-12 2.532E-14 1.705E-10 5.570E-08 2.206E-08
 ETOT 15  -35.324344375340    -2.416E-13 2.301E-15 1.844E-11 1.289E-08 9.165E-09
 ETOT 16  -35.324344375340    -1.208E-13 1.603E-16 2.113E-12 7.877E-09 1.287E-09
 ETOT 17  -35.324344375340    -6.395E-14 6.093E-18 5.080E-13 2.798E-09 1.511E-09
 ETOT 18  -35.324344375340     1.634E-13 7.288E-18 9.749E-14 1.004E-09 5.069E-10
 ETOT 19  -35.324344375340    -1.350E-13 8.686E-19 9.672E-15 2.046E-10 3.024E-10
 ETOT 20  -35.324344375340     5.684E-14 1.503E-19 4.738E-16 2.178E-10 8.453E-11
 ETOT 21  -35.324344375340     4.974E-14 3.234E-21 4.034E-17 7.886E-11 5.672E-12
 ETOT 22  -35.324344375340    -1.066E-13 4.431E-22 5.951E-18 9.007E-12 3.335E-12
 ETOT 23  -35.324344375340     5.684E-14 2.100E-23 2.344E-18 3.354E-12 4.250E-12
 ETOT 24  -35.324344375340     6.395E-14 4.054E-23 4.182E-19 3.736E-12 1.677E-12
 ETOT 25  -35.324344375340    -8.527E-14 1.914E-24 1.371E-20 1.310E-12 3.671E-13
 ETOT 26  -35.324344375340     0.000E+00 7.122E-25 1.924E-21 5.901E-13 7.481E-13

 At SCF step   26   max residual=  7.12E-25 < tolwfr=  1.00E-24 =>converged.

 Cartesian components of stress tensor (hartree/bohr^3)
  sigma(1 1)=  2.34163423E-04  sigma(3 2)=  2.97830604E-15
  sigma(2 2)=  2.34163423E-04  sigma(3 1)=  0.00000000E+00
  sigma(3 3)=  2.34163423E-04  sigma(2 1)=  0.00000000E+00

================================================================================

 ----iterations are completed or convergence reached----

 Mean square residual over all n,k,spin=   5.0551E-25; max=  7.1221E-25
   0.2500  0.2500  0.2500    1  5.94735E-25 kpt; spin; max resid(k); each band:
 5.29E-25 4.56E-25 4.43E-25 5.13E-25 4.54E-25 5.07E-25 5.27E-25 4.65E-25
 5.00E-25 5.11E-25 5.95E-25 5.20E-25 4.29E-25 5.48E-25 4.96E-25 4.88E-25
  -0.2500  0.2500  0.2500    1  5.95362E-25 kpt; spin; max resid(k); each band:
 5.31E-25 4.26E-25 4.41E-25 5.42E-25 5.84E-25 3.56E-25 5.95E-25 4.42E-25
 4.73E-25 4.72E-25 5.52E-25 5.32E-25 5.76E-25 5.26E-25 5.63E-25 5.04E-25
   0.2500 -0.2500  0.2500    1  7.12211E-25 kpt; spin; max resid(k); each band:
 5.20E-25 4.26E-25 4.59E-25 6.00E-25 3.57E-25 4.39E-25 4.68E-25 5.71E-25
 5.40E-25 6.28E-25 7.12E-25 4.41E-25 4.38E-25 4.93E-25 4.30E-25 4.78E-25
   0.2500  0.2500 -0.2500    1  7.02172E-25 kpt; spin; max resid(k); each band:
 5.29E-25 3.98E-25 5.59E-25 4.64E-25 3.95E-25 4.97E-25 5.73E-25 4.83E-25
 4.67E-25 5.83E-25 7.02E-25 4.45E-25 6.09E-25 5.46E-25 4.44E-25 5.62E-25
 reduced coordinates (array xred) for    8 atoms
       0.000000000000      0.000000000000      0.000000000000
       0.250000000000      0.250000000000      0.250000000000
       0.000000000000      0.500000000000      0.500000000000
       0.250000000000      0.750000000000      0.750000000000
       0.500000000000      0.000000000000      0.500000000000
       0.750000000000      0.250000000000      0.750000000000
       0.500000000000      0.500000000000      0.000000000000
       0.750000000000      0.750000000000      0.250000000000
 rms dE/dt=  3.1638E-12; max dE/dt=  8.4871E-12; dE/dt below (all hartree)
    1      -0.000000000002      0.000000000005     -0.000000000000
    2      -0.000000000004     -0.000000000004     -0.000000000002
    3      -0.000000000003     -0.000000000003      0.000000000002
    4      -0.000000000003      0.000000000002     -0.000000000000
    5       0.000000000001      0.000000000002      0.000000000001
    6       0.000000000008     -0.000000000002      0.000000000001
    7       0.000000000002     -0.000000000004     -0.000000000001
    8       0.000000000007      0.000000000003      0.000000000000

 cartesian coordinates (angstrom) at end:
    1      0.00000000000000     0.00000000000000     0.00000000000000
    2      1.35775097531303     1.35775097531303     1.35775097531303
    3      0.00000000000000     2.71550195062606     2.71550195062606
    4      1.35775097531303     4.07325292593909     4.07325292593909
    5      2.71550195062606     0.00000000000000     2.71550195062606
    6      4.07325292593909     1.35775097531303     4.07325292593909
    7      2.71550195062606     2.71550195062606     0.00000000000000
    8      4.07325292593909     4.07325292593909     1.35775097531303

 cartesian forces (hartree/bohr) at end:
    1      0.00000000000026    -0.00000000000046     0.00000000000003
    2      0.00000000000046     0.00000000000035     0.00000000000022
    3      0.00000000000036     0.00000000000026    -0.00000000000017
    4      0.00000000000034    -0.00000000000021     0.00000000000003
    5     -0.00000000000002    -0.00000000000020    -0.00000000000007
    6     -0.00000000000075     0.00000000000015    -0.00000000000011
    7     -0.00000000000007     0.00000000000038     0.00000000000009
    8     -0.00000000000057    -0.00000000000026    -0.00000000000003
 frms,max,avg= 3.0477384E-13 7.4808481E-13  -7.886E-14  1.406E-14  0.000E+00 h/b

 cartesian forces (eV/Angstrom) at end:
    1      0.00000000001317    -0.00000000002371     0.00000000000136
    2      0.00000000002369     0.00000000001791     0.00000000001148
    3      0.00000000001829     0.00000000001322    -0.00000000000866
    4      0.00000000001738    -0.00000000001059     0.00000000000168
    5     -0.00000000000110    -0.00000000001041    -0.00000000000361
    6     -0.00000000003847     0.00000000000748    -0.00000000000568
    7     -0.00000000000379     0.00000000001954     0.00000000000475
    8     -0.00000000002917    -0.00000000001343    -0.00000000000131
 frms,max,avg= 1.5672099E-11 3.8468064E-11  -4.055E-12  7.231E-13  0.000E+00 e/A
 length scales= 10.263110000000 10.263110000000 10.263110000000 bohr
              =  5.431003901252  5.431003901252  5.431003901252 angstroms
 prteigrs : about to open file t98o_EIG
 Fermi (or HOMO) energy (hartree) =   0.18648   Average Vxc (hartree)=  -0.35250
 Eigenvalues (hartree) for nkpt=   4  k points:
 kpt#   1, nband= 16, wtk=  0.25000, kpt=  0.2500  0.2500  0.2500 (reduced coord)
  -0.19034  -0.12056  -0.12056  -0.12056  -0.01706  -0.01706  -0.01706   0.07092
   0.08290   0.08290   0.08290   0.13161   0.13161   0.13161   0.18648   0.18648
 kpt#   2, nband= 16, wtk=  0.25000, kpt= -0.2500  0.2500  0.2500 (reduced coord)
  -0.19034  -0.12056  -0.12056  -0.12056  -0.01706  -0.01706  -0.01706   0.07092
   0.08290   0.08290   0.08290   0.13161   0.13161   0.13161   0.18648   0.18648
 kpt#   3, nband= 16, wtk=  0.25000, kpt=  0.2500 -0.2500  0.2500 (reduced coord)
  -0.19034  -0.12056  -0.12056  -0.12056  -0.01706  -0.01706  -0.01706   0.07092
   0.08290   0.08290   0.08290   0.13161   0.13161   0.13161   0.18648   0.18648
 kpt#   4, nband= 16, wtk=  0.25000, kpt=  0.2500  0.2500 -0.2500 (reduced coord)
  -0.19034  -0.12056  -0.12056  -0.12056  -0.01706  -0.01706  -0.01706   0.07092
   0.08290   0.08290   0.08290   0.13161   0.13161   0.13161   0.18648   0.18648
 Fermi (or HOMO) energy (eV) =   5.07446   Average Vxc (eV)=  -9.59197
 Eigenvalues (   eV  ) for nkpt=   4  k points:
 kpt#   1, nband= 16, wtk=  0.25000, kpt=  0.2500  0.2500  0.2500 (reduced coord)
  -5.17931  -3.28069  -3.28069  -3.28069  -0.46422  -0.46422  -0.46422   1.92978
   2.25582   2.25582   2.25582   3.58131   3.58131   3.58131   5.07446   5.07446
 kpt#   2, nband= 16, wtk=  0.25000, kpt= -0.2500  0.2500  0.2500 (reduced coord)
  -5.17931  -3.28069  -3.28069  -3.28069  -0.46422  -0.46422  -0.46422   1.92978
   2.25582   2.25582   2.25582   3.58131   3.58131   3.58131   5.07446   5.07446
 kpt#   3, nband= 16, wtk=  0.25000, kpt=  0.2500 -0.2500  0.2500 (reduced coord)
  -5.17931  -3.28069  -3.28069  -3.28069  -0.46422  -0.46422  -0.46422   1.92978
   2.25582   2.25582   2.25582   3.58131   3.58131   3.58131   5.07446   5.07446
 kpt#   4, nband= 16, wtk=  0.25000, kpt=  0.2500  0.2500 -0.2500 (reduced coord)
  -5.17931  -3.28069  -3.28069  -3.28069  -0.46422  -0.46422  -0.46422   1.92978
   2.25582   2.25582   2.25582   3.58131   3.58131   3.58131   5.07446   5.07446
 Total charge density [el/Bohr^3]
,     Maximum=    8.3897E-02  at reduced coord.    0.1000    0.9000    0.9000
,Next maximum=    8.3897E-02  at reduced coord.    0.4000    0.6000    0.9000
,     Minimum=    3.2117E-03  at reduced coord.    0.5000    0.0000    0.0000
,Next minimum=    3.2117E-03  at reduced coord.    0.0000    0.5000    0.0000

--------------------------------------------------------------------------------
 Components of total free energy (in Hartree) :

    Kinetic energy  =  1.18447885057540E+01
    Hartree energy  =  2.16588554348613E+00
    XC energy       = -1.41268203450151E+01
    Ewald energy    = -3.35916768723201E+01
    PspCore energy  =  3.39557039532177E-01
    Loc. psp. energy= -1.00254196968984E+01
    NL   psp  energy=  8.06934145012122E+00
    >>>>>>>>> Etotal= -3.53243443753401E+01

 Other information on the energy :
    Total energy(eV)= -9.61224294400210E+02 ; Band energy (Ha)=   9.6842321551E-01
--------------------------------------------------------------------------------

 Cartesian components of stress tensor (hartree/bohr^3)
  sigma(1 1)=  2.34163423E-04  sigma(3 2)=  2.97830604E-15
  sigma(2 2)=  2.34163423E-04  sigma(3 1)=  0.00000000E+00
  sigma(3 3)=  2.34163423E-04  sigma(2 1)=  0.00000000E+00

-Cartesian components of stress tensor (GPa)         [Pressure= -6.8893E+00 GPa]
- sigma(1 1)=  6.88932461E+00  sigma(3 2)=  8.76247742E-11
- sigma(2 2)=  6.88932460E+00  sigma(3 1)=  0.00000000E+00
- sigma(3 3)=  6.88932460E+00  sigma(2 1)=  0.00000000E+00

== END DATASET(S) ==============================================================
================================================================================
  
 -outvars: echo values of variables after computation  --------
     acell    1.0263110000E+01  1.0263110000E+01  1.0263110000E+01 Bohr
       amu    2.80855000E+01
      cpus     10.      (seconds)
      cpum    0.17      (minutes)
      cpuh    2.78E-03  (hours)
    diemac    1.00000000E+00
    diemix    3.33333333E-01
      ecut    3.99000000E+00 Hartree
    enunit         2
    etotal   -3.5324344375E+01
     fcart    2.5618282388E-13 -4.6105167422E-13  2.6369331607E-14
              4.6065626956E-13  3.4822817324E-13  2.2316477982E-13
              3.5574206842E-13  2.5706211395E-13 -1.6845872376E-13
              3.3795496826E-13 -2.0603526445E-13  3.2633648357E-14
             -2.1451683859E-14 -2.0241509580E-13 -7.0151872323E-14
             -7.4808480813E-13  1.4539374395E-13 -1.1054735236E-13
             -7.3700869485E-14  3.7997827235E-13  9.2445245448E-14
             -5.6729876865E-13 -2.6116026901E-13 -2.5455056790E-14
     intxc         1
      iscf         5
    isecur        -4
       kpt    1.00000000E+00  1.00000000E+00  1.00000000E+00
             -1.00000000E+00  1.00000000E+00  1.00000000E+00
              1.00000000E+00 -1.00000000E+00  1.00000000E+00
              1.00000000E+00  1.00000000E+00 -1.00000000E+00
    kptnrm    4.00000000E+00
P    mkmem         4
     natom         8
     nband        16
     ngfft        20      20      20
      nkpt         4
     nstep        40
      nsym         1
    ntypat         1
       occ    2.000000  2.000000  2.000000  2.000000  2.000000  2.000000
              2.000000  2.000000  2.000000  2.000000  2.000000  2.000000
              2.000000  2.000000  2.000000  2.000000
    occopt         0
   spgroup         1
    strten    2.3416342328E-04  2.3416342323E-04  2.3416342319E-04
              2.9783060394E-15  0.0000000000E+00  0.0000000000E+00
    tolwfr    1.00000000E-24
     typat    1  1  1  1  1  1  1  1
       wtk      0.25000    0.25000    0.25000    0.25000
    xangst    0.0000000000E+00  0.0000000000E+00  0.0000000000E+00
              1.3577509753E+00  1.3577509753E+00  1.3577509753E+00
              0.0000000000E+00  2.7155019506E+00  2.7155019506E+00
              1.3577509753E+00  4.0732529259E+00  4.0732529259E+00
              2.7155019506E+00  0.0000000000E+00  2.7155019506E+00
              4.0732529259E+00  1.3577509753E+00  4.0732529259E+00
              2.7155019506E+00  2.7155019506E+00  0.0000000000E+00
              4.0732529259E+00  4.0732529259E+00  1.3577509753E+00
     xcart    0.0000000000E+00  0.0000000000E+00  0.0000000000E+00
              2.5657775000E+00  2.5657775000E+00  2.5657775000E+00
              0.0000000000E+00  5.1315550000E+00  5.1315550000E+00
              2.5657775000E+00  7.6973325000E+00  7.6973325000E+00
              5.1315550000E+00  0.0000000000E+00  5.1315550000E+00
              7.6973325000E+00  2.5657775000E+00  7.6973325000E+00
              5.1315550000E+00  5.1315550000E+00  0.0000000000E+00
              7.6973325000E+00  7.6973325000E+00  2.5657775000E+00
      xred    0.0000000000E+00  0.0000000000E+00  0.0000000000E+00
              2.5000000000E-01  2.5000000000E-01  2.5000000000E-01
              0.0000000000E+00  5.0000000000E-01  5.0000000000E-01
              2.5000000000E-01  7.5000000000E-01  7.5000000000E-01
              5.0000000000E-01  0.0000000000E+00  5.0000000000E-01
              7.5000000000E-01  2.5000000000E-01  7.5000000000E-01
              5.0000000000E-01  5.0000000000E-01  0.0000000000E+00
              7.5000000000E-01  7.5000000000E-01  2.5000000000E-01
     znucl     14.00000

================================================================================

- Total cpu        time (s,m,h):          7.6        0.13      0.002
- Total wall clock time (s,m,h):          7.6        0.13      0.002

- For major independent code sections, cpu and wall times (sec),
- as well as % of the total time and number of calls 

- routine                 cpu     %       wall     %      number of calls 
-                                                          (-1=no count)
- fourwf(pot)            3.305  43.2      3.303  43.2           8528
- nonlop(apply)          0.793  10.4      0.787  10.3           8528
- projbd                 0.730   9.5      0.736   9.6          13472
- timing timab           0.493   6.4      0.492   6.4             12
- fourwf(den)            0.369   4.8      0.384   5.0           1664
- vtowfk(ssdiag)         0.367   4.8      0.368   4.8             -1
- pspini                 0.225   2.9      0.225   2.9              1
- nonlop(forces)         0.210   2.7      0.202   2.6           1664
- forces                 0.174   2.3      0.173   2.3             26
- status                 0.151   2.0      0.145   1.9           2095
- getghc-other           0.132   1.7      0.149   1.9             -1
- invars2                0.110   1.4      0.111   1.5              1
- mkcore                 0.065   0.9      0.063   0.8             28
- xc:pot/=fourdp         0.048   0.6      0.047   0.6             27
- fourdp                 0.044   0.6      0.039   0.5            163
- vtowfk(contrib)        0.043   0.6      0.037   0.5            104
- 54   others            0.129   1.7      0.127   1.7

- subtotal               7.388  96.7      7.388  96.7

================================================================================

 Calculation completed.
.Delivered    5 WARNINGs and   1 COMMENTs to log file.
+Overall time at end (sec) : cpu=          7.6  wall=          7.6
