
.Version 5.6.3  of ABINIT 
.(sequential version, prepared for a x86_64_linux_gcc4.3 computer) 

.Copyright (C) 1998-2008 ABINIT group . 
 ABINIT comes with ABSOLUTELY NO WARRANTY.
 It is free software, and you are welcome to redistribute it
 under certain conditions (GNU General Public License,
 see ~abinit/COPYING or http://www.gnu.org/copyleft/gpl.txt).

 ABINIT is a project of the Universite Catholique de Louvain,
 Corning Inc. and other collaborators, see ~abinit/doc/developers/contributors.txt .
 Please read ~abinit/doc/users/acknowledgments.html for suggested
 acknowledgments of the ABINIT effort.
 For more information, see http://www.abinit.org .

.Starting date : Thu  6 Nov 2008.
  
- input  file    -> /home/gonze/ABINIT/ABINITv5.6.3/test_gcc43/5.6.3-private/tests/v1/Input/t99.in
- output file    -> t99.out
- root for input  files -> t98o
- root for output files -> t99o


 Symmetries : space group P1 (#  1); Bravais aP (primitive triclinic)
================================================================================
 Values of the parameters that define the memory need of the present run
   intxc =         1  ionmov =         0    iscf =         5 xclevel =         1
  lmnmax =         2   lnmax =         2   mband =        16  mffmem =         1
P  mgfft =        20   mkmem =         4 mpssoang=         3     mpw =       416
  mqgrid =      3001   natom =         8    nfft =      8000    nkpt =         4
  nloalg =         4  nspden =         1 nspinor =         1  nsppol =         1
    nsym =         1  n1xccc =      2501  ntypat =         1  occopt =         0
================================================================================
P This job should need less than                       2.841 Mbytes of memory.
  Rough estimation (10% accuracy) of disk space for files :
  WF disk file :      0.408 Mbytes ; DEN or POT disk file :      0.063 Mbytes.
================================================================================

 -outvars: echo values of preprocessed input variables --------
     acell    1.0263110000E+01  1.0263110000E+01  1.0263110000E+01 Bohr
       amu    2.80855000E+01
    diemac    1.00000000E+00
    diemix    3.33333333E-01
      ecut    3.99000000E+00 Hartree
    enunit         2
     intxc         1
    irdwfk         1
      iscf         5
    isecur        -4
       kpt    1.00000000E+00  1.00000000E+00  1.00000000E+00
             -1.00000000E+00  1.00000000E+00  1.00000000E+00
              1.00000000E+00 -1.00000000E+00  1.00000000E+00
              1.00000000E+00  1.00000000E+00 -1.00000000E+00
    kptnrm    4.00000000E+00
P    mkmem         4
     natom         8
     nband        16
     ngfft        20      20      20
      nkpt         4
     nstep        40
      nsym         1
    ntypat         1
       occ    2.000000  2.000000  2.000000  2.000000  2.000000  2.000000
              2.000000  2.000000  2.000000  2.000000  2.000000  2.000000
              2.000000  2.000000  2.000000  2.000000
    occopt         0
   spgroup         1
    tolwfr    1.00000000E-24
     typat    1  1  1  1  1  1  1  1
       wtk      0.25000    0.25000    0.25000    0.25000
    xangst    0.0000000000E+00  0.0000000000E+00  0.0000000000E+00
              1.3577509753E+00  1.3577509753E+00  1.3577509753E+00
              0.0000000000E+00  2.7155019506E+00  2.7155019506E+00
              1.3577509753E+00  4.0732529259E+00  4.0732529259E+00
              2.7155019506E+00  0.0000000000E+00  2.7155019506E+00
              4.0732529259E+00  1.3577509753E+00  4.0732529259E+00
              2.7155019506E+00  2.7155019506E+00  0.0000000000E+00
              4.0732529259E+00  4.0732529259E+00  1.3577509753E+00
     xcart    0.0000000000E+00  0.0000000000E+00  0.0000000000E+00
              2.5657775000E+00  2.5657775000E+00  2.5657775000E+00
              0.0000000000E+00  5.1315550000E+00  5.1315550000E+00
              2.5657775000E+00  7.6973325000E+00  7.6973325000E+00
              5.1315550000E+00  0.0000000000E+00  5.1315550000E+00
              7.6973325000E+00  2.5657775000E+00  7.6973325000E+00
              5.1315550000E+00  5.1315550000E+00  0.0000000000E+00
              7.6973325000E+00  7.6973325000E+00  2.5657775000E+00
      xred    0.0000000000E+00  0.0000000000E+00  0.0000000000E+00
              2.5000000000E-01  2.5000000000E-01  2.5000000000E-01
              0.0000000000E+00  5.0000000000E-01  5.0000000000E-01
              2.5000000000E-01  7.5000000000E-01  7.5000000000E-01
              5.0000000000E-01  0.0000000000E+00  5.0000000000E-01
              7.5000000000E-01  2.5000000000E-01  7.5000000000E-01
              5.0000000000E-01  5.0000000000E-01  0.0000000000E+00
              7.5000000000E-01  7.5000000000E-01  2.5000000000E-01
     znucl     14.00000

================================================================================

 chkinp: Checking input parameters for consistency.

================================================================================
== DATASET  1 ==================================================================

 Real(R)+Recip(G) space primitive vectors, cartesian coordinates (Bohr,Bohr^-1):
 R(1)= 10.2631100  0.0000000  0.0000000  G(1)=  0.0974364  0.0000000  0.0000000
 R(2)=  0.0000000 10.2631100  0.0000000  G(2)=  0.0000000  0.0974364  0.0000000
 R(3)=  0.0000000  0.0000000 10.2631100  G(3)=  0.0000000  0.0000000  0.0974364
 Unit cell volume ucvol=  1.0810280E+03 bohr^3
 Angles (23,13,12)=  9.00000000E+01  9.00000000E+01  9.00000000E+01 degrees

 getcut: wavevector=  0.0000  0.0000  0.0000  ngfft=  20  20  20
         ecut(hartree)=      3.990   => boxcut(ratio)=   2.16720

--- Pseudopotential description ------------------------------------------------
- pspini: atom type   1  psp file is /home/gonze/ABINIT/ABINITv5.6.3/test_gcc43/5.6.3-private/tests/Psps_for_tests/14si.pspnc
- pspatm: opening atomic psp file    /home/gonze/ABINIT/ABINITv5.6.3/test_gcc43/5.6.3-private/tests/Psps_for_tests/14si.pspnc
  Troullier-Martins psp for element  Si        Thu Oct 27 17:31:21 EDT 1994
  14.00000   4.00000    940714                znucl, zion, pspdat
    1    1    2    2      2001   0.00000      pspcod,pspxc,lmax,lloc,mmax,r2well
    0   5.907  14.692    1   2.0872718        l,e99.0,e99.9,nproj,rcpsp
   0.00000000   0.00000000   0.00000000   0.00000000     rms, ekb1, ekb2, epsatm
    1   2.617   4.181    1   2.0872718        l,e99.0,e99.9,nproj,rcpsp
   0.00000000   0.00000000   0.00000000   0.00000000     rms, ekb1, ekb2, epsatm
    2   0.000   0.000    0   2.0872718        l,e99.0,e99.9,nproj,rcpsp
   0.00000000   0.00000000   0.00000000   0.00000000     rms, ekb1, ekb2, epsatm
    1.80626423934776    0.22824404341771    1.17378968127746   rchrg,fchrg,qchrg
 pspatm: epsatm=    1.43386982
         --- l  ekb(1:nproj) -->
             0    3.287949
             1    1.849886
 pspatm: atomic psp has been read  and splines computed

   3.67070674E+02                                ecore*ucvol(ha*bohr**3)
--------------------------------------------------------------------------------

-inwffil : will read wavefunctions from disk file t98o_WFK
P newkpt: treating     16 bands with npw=     416 for ikpt=   1
P newkpt: treating     16 bands with npw=     416 for ikpt=   2
P newkpt: treating     16 bands with npw=     416 for ikpt=   3
P newkpt: treating     16 bands with npw=     416 for ikpt=   4

 setup2: Arith. and geom. avg. npw (full set) are     416.000     416.000

================================================================================

     iter   Etot(hartree)      deltaE(h)  residm     vres2    diffor    maxfor
 ETOT  1  -35.324344375340    -3.532E+01 9.944E-25 2.913E-22 8.904E-13 8.904E-13

 At SCF step    1   max residual=  9.94E-25 < tolwfr=  1.00E-24 =>converged.

 Cartesian components of stress tensor (hartree/bohr^3)
  sigma(1 1)=  2.34163423E-04  sigma(3 2)=  1.87340448E-15
  sigma(2 2)=  2.34163423E-04  sigma(3 1)=  0.00000000E+00
  sigma(3 3)=  2.34163423E-04  sigma(2 1)=  0.00000000E+00

================================================================================

 ----iterations are completed or convergence reached----

 Mean square residual over all n,k,spin=   7.8007E-25; max=  9.9441E-25
   0.2500  0.2500  0.2500    1  9.94410E-25 kpt; spin; max resid(k); each band:
 9.42E-25 9.01E-25 8.20E-25 8.34E-25 8.62E-25 3.02E-25 8.30E-25 8.63E-25
 9.94E-25 9.59E-25 2.29E-25 9.18E-25 7.96E-25 9.04E-25 8.96E-25 8.45E-25
  -0.2500  0.2500  0.2500    1  9.86790E-25 kpt; spin; max resid(k); each band:
 9.38E-25 8.24E-25 9.09E-25 8.42E-25 9.87E-25 8.79E-25 7.90E-25 8.45E-25
 9.18E-25 9.64E-25 9.62E-25 9.40E-25 9.04E-25 9.02E-25 9.79E-25 8.40E-25
   0.2500 -0.2500  0.2500    1  9.29253E-25 kpt; spin; max resid(k); each band:
 9.29E-25 9.05E-25 8.87E-25 8.90E-25 7.99E-25 7.73E-25 7.86E-25 2.81E-25
 3.21E-25 2.79E-25 2.54E-25 8.21E-25 8.18E-25 8.08E-25 7.73E-25 8.38E-25
   0.2500  0.2500 -0.2500    1  9.60125E-25 kpt; spin; max resid(k); each band:
 9.53E-25 8.85E-25 8.37E-25 8.13E-25 8.21E-25 8.35E-25 9.60E-25 9.37E-25
 2.58E-25 2.52E-25 2.20E-25 8.14E-25 2.67E-25 8.72E-25 7.90E-25 9.29E-25
 reduced coordinates (array xred) for    8 atoms
       0.000000000000      0.000000000000      0.000000000000
       0.250000000000      0.250000000000      0.250000000000
       0.000000000000      0.500000000000      0.500000000000
       0.250000000000      0.750000000000      0.750000000000
       0.500000000000      0.000000000000      0.500000000000
       0.750000000000      0.250000000000      0.750000000000
       0.500000000000      0.500000000000      0.000000000000
       0.750000000000      0.750000000000      0.250000000000
 rms dE/dt=  4.4798E-12; max dE/dt=  1.0343E-11; dE/dt below (all hartree)
    1      -0.000000000002      0.000000000005     -0.000000000000
    2      -0.000000000006     -0.000000000005     -0.000000000003
    3      -0.000000000003     -0.000000000005      0.000000000002
    4      -0.000000000005      0.000000000003      0.000000000001
    5       0.000000000003      0.000000000004      0.000000000002
    6       0.000000000010     -0.000000000003      0.000000000002
    7       0.000000000002     -0.000000000006     -0.000000000002
    8       0.000000000010      0.000000000004     -0.000000000001

 cartesian coordinates (angstrom) at end:
    1      0.00000000000000     0.00000000000000     0.00000000000000
    2      1.35775097531303     1.35775097531303     1.35775097531303
    3      0.00000000000000     2.71550195062606     2.71550195062606
    4      1.35775097531303     4.07325292593909     4.07325292593909
    5      2.71550195062606     0.00000000000000     2.71550195062606
    6      4.07325292593909     1.35775097531303     4.07325292593909
    7      2.71550195062606     2.71550195062606     0.00000000000000
    8      4.07325292593909     4.07325292593909     1.35775097531303

 cartesian forces (hartree/bohr) at end:
    1      0.00000000000035    -0.00000000000052     0.00000000000002
    2      0.00000000000067     0.00000000000044     0.00000000000030
    3      0.00000000000042     0.00000000000044    -0.00000000000022
    4      0.00000000000059    -0.00000000000032    -0.00000000000005
    5     -0.00000000000015    -0.00000000000042    -0.00000000000014
    6     -0.00000000000089     0.00000000000024    -0.00000000000014
    7     -0.00000000000011     0.00000000000059     0.00000000000016
    8     -0.00000000000088    -0.00000000000044     0.00000000000007
 frms,max,avg= 4.3078762E-13 8.9038410E-13  -1.174E-13  3.088E-14 -1.046E-14 h/b

 cartesian forces (eV/Angstrom) at end:
    1      0.00000000001800    -0.00000000002676     0.00000000000086
    2      0.00000000003433     0.00000000002243     0.00000000001531
    3      0.00000000002171     0.00000000002264    -0.00000000001155
    4      0.00000000003057    -0.00000000001631    -0.00000000000242
    5     -0.00000000000771    -0.00000000002174    -0.00000000000722
    6     -0.00000000004579     0.00000000001220    -0.00000000000712
    7     -0.00000000000573     0.00000000003033     0.00000000000832
    8     -0.00000000004538    -0.00000000002280     0.00000000000382
 frms,max,avg= 2.2151988E-11 4.5785387E-11  -6.036E-12  1.588E-12 -5.378E-13 e/A
 length scales= 10.263110000000 10.263110000000 10.263110000000 bohr
              =  5.431003901252  5.431003901252  5.431003901252 angstroms
 prteigrs : about to open file t99o_EIG
 Fermi (or HOMO) energy (hartree) =   0.18648   Average Vxc (hartree)=  -0.35250
 Eigenvalues (hartree) for nkpt=   4  k points:
 kpt#   1, nband= 16, wtk=  0.25000, kpt=  0.2500  0.2500  0.2500 (reduced coord)
  -0.19034  -0.12056  -0.12056  -0.12056  -0.01706  -0.01706  -0.01706   0.07092
   0.08290   0.08290   0.08290   0.13161   0.13161   0.13161   0.18648   0.18648
 kpt#   2, nband= 16, wtk=  0.25000, kpt= -0.2500  0.2500  0.2500 (reduced coord)
  -0.19034  -0.12056  -0.12056  -0.12056  -0.01706  -0.01706  -0.01706   0.07092
   0.08290   0.08290   0.08290   0.13161   0.13161   0.13161   0.18648   0.18648
 kpt#   3, nband= 16, wtk=  0.25000, kpt=  0.2500 -0.2500  0.2500 (reduced coord)
  -0.19034  -0.12056  -0.12056  -0.12056  -0.01706  -0.01706  -0.01706   0.07092
   0.08290   0.08290   0.08290   0.13161   0.13161   0.13161   0.18648   0.18648
 kpt#   4, nband= 16, wtk=  0.25000, kpt=  0.2500  0.2500 -0.2500 (reduced coord)
  -0.19034  -0.12056  -0.12056  -0.12056  -0.01706  -0.01706  -0.01706   0.07092
   0.08290   0.08290   0.08290   0.13161   0.13161   0.13161   0.18648   0.18648
 Fermi (or HOMO) energy (eV) =   5.07446   Average Vxc (eV)=  -9.59197
 Eigenvalues (   eV  ) for nkpt=   4  k points:
 kpt#   1, nband= 16, wtk=  0.25000, kpt=  0.2500  0.2500  0.2500 (reduced coord)
  -5.17931  -3.28069  -3.28069  -3.28069  -0.46422  -0.46422  -0.46422   1.92978
   2.25582   2.25582   2.25582   3.58131   3.58131   3.58131   5.07446   5.07446
 kpt#   2, nband= 16, wtk=  0.25000, kpt= -0.2500  0.2500  0.2500 (reduced coord)
  -5.17931  -3.28069  -3.28069  -3.28069  -0.46422  -0.46422  -0.46422   1.92978
   2.25582   2.25582   2.25582   3.58131   3.58131   3.58131   5.07446   5.07446
 kpt#   3, nband= 16, wtk=  0.25000, kpt=  0.2500 -0.2500  0.2500 (reduced coord)
  -5.17931  -3.28069  -3.28069  -3.28069  -0.46422  -0.46422  -0.46422   1.92978
   2.25582   2.25582   2.25582   3.58131   3.58131   3.58131   5.07446   5.07446
 kpt#   4, nband= 16, wtk=  0.25000, kpt=  0.2500  0.2500 -0.2500 (reduced coord)
  -5.17931  -3.28069  -3.28069  -3.28069  -0.46422  -0.46422  -0.46422   1.92978
   2.25582   2.25582   2.25582   3.58131   3.58131   3.58131   5.07446   5.07446
 Total charge density [el/Bohr^3]
,     Maximum=    8.3897E-02  at reduced coord.    0.1000    0.9000    0.9000
,Next maximum=    8.3897E-02  at reduced coord.    0.4000    0.6000    0.9000
,     Minimum=    3.2117E-03  at reduced coord.    0.5000    0.0000    0.0000
,Next minimum=    3.2117E-03  at reduced coord.    0.0000    0.5000    0.0000

--------------------------------------------------------------------------------
 Components of total free energy (in Hartree) :

    Kinetic energy  =  1.18447885057560E+01
    Hartree energy  =  2.16588554348773E+00
    XC energy       = -1.41268203450159E+01
    Ewald energy    = -3.35916768723201E+01
    PspCore energy  =  3.39557039532177E-01
    Loc. psp. energy= -1.00254196969025E+01
    NL   psp  energy=  8.06934145012259E+00
    >>>>>>>>> Etotal= -3.53243443753401E+01

 Other information on the energy :
    Total energy(eV)= -9.61224294400213E+02 ; Band energy (Ha)=   9.6842321550E-01
--------------------------------------------------------------------------------

 Cartesian components of stress tensor (hartree/bohr^3)
  sigma(1 1)=  2.34163423E-04  sigma(3 2)=  1.87340448E-15
  sigma(2 2)=  2.34163423E-04  sigma(3 1)=  0.00000000E+00
  sigma(3 3)=  2.34163423E-04  sigma(2 1)=  0.00000000E+00

-Cartesian components of stress tensor (GPa)         [Pressure= -6.8893E+00 GPa]
- sigma(1 1)=  6.88932461E+00  sigma(3 2)=  5.51174536E-11
- sigma(2 2)=  6.88932460E+00  sigma(3 1)=  0.00000000E+00
- sigma(3 3)=  6.88932460E+00  sigma(2 1)=  0.00000000E+00

== END DATASET(S) ==============================================================
================================================================================
  
 -outvars: echo values of variables after computation  --------
     acell    1.0263110000E+01  1.0263110000E+01  1.0263110000E+01 Bohr
       amu    2.80855000E+01
    diemac    1.00000000E+00
    diemix    3.33333333E-01
      ecut    3.99000000E+00 Hartree
    enunit         2
    etotal   -3.5324344375E+01
     fcart    3.5002411295E-13 -5.2041899471E-13  1.6703474287E-14
              6.6760342216E-13  4.3619568064E-13  2.9771915008E-13
              4.2219378110E-13  4.4036845187E-13 -2.2465935347E-13
              5.9439801191E-13 -3.1714193814E-13 -4.7158154212E-14
             -1.4985087985E-13 -4.2279104737E-13 -1.4040279895E-13
             -8.9038410056E-13  2.3734527054E-13 -1.3842288214E-13
             -1.1141674667E-13  5.8989419703E-13  1.6183865491E-13
             -8.8256760105E-13 -4.4345161986E-13  7.4381909498E-14
     intxc         1
    irdwfk         1
      iscf         5
    isecur        -4
       kpt    1.00000000E+00  1.00000000E+00  1.00000000E+00
             -1.00000000E+00  1.00000000E+00  1.00000000E+00
              1.00000000E+00 -1.00000000E+00  1.00000000E+00
              1.00000000E+00  1.00000000E+00 -1.00000000E+00
    kptnrm    4.00000000E+00
P    mkmem         4
     natom         8
     nband        16
     ngfft        20      20      20
      nkpt         4
     nstep        40
      nsym         1
    ntypat         1
       occ    2.000000  2.000000  2.000000  2.000000  2.000000  2.000000
              2.000000  2.000000  2.000000  2.000000  2.000000  2.000000
              2.000000  2.000000  2.000000  2.000000
    occopt         0
   spgroup         1
    strten    2.3416342328E-04  2.3416342323E-04  2.3416342319E-04
              1.8734044837E-15  0.0000000000E+00  0.0000000000E+00
    tolwfr    1.00000000E-24
     typat    1  1  1  1  1  1  1  1
       wtk      0.25000    0.25000    0.25000    0.25000
    xangst    0.0000000000E+00  0.0000000000E+00  0.0000000000E+00
              1.3577509753E+00  1.3577509753E+00  1.3577509753E+00
              0.0000000000E+00  2.7155019506E+00  2.7155019506E+00
              1.3577509753E+00  4.0732529259E+00  4.0732529259E+00
              2.7155019506E+00  0.0000000000E+00  2.7155019506E+00
              4.0732529259E+00  1.3577509753E+00  4.0732529259E+00
              2.7155019506E+00  2.7155019506E+00  0.0000000000E+00
              4.0732529259E+00  4.0732529259E+00  1.3577509753E+00
     xcart    0.0000000000E+00  0.0000000000E+00  0.0000000000E+00
              2.5657775000E+00  2.5657775000E+00  2.5657775000E+00
              0.0000000000E+00  5.1315550000E+00  5.1315550000E+00
              2.5657775000E+00  7.6973325000E+00  7.6973325000E+00
              5.1315550000E+00  0.0000000000E+00  5.1315550000E+00
              7.6973325000E+00  2.5657775000E+00  7.6973325000E+00
              5.1315550000E+00  5.1315550000E+00  0.0000000000E+00
              7.6973325000E+00  7.6973325000E+00  2.5657775000E+00
      xred    0.0000000000E+00  0.0000000000E+00  0.0000000000E+00
              2.5000000000E-01  2.5000000000E-01  2.5000000000E-01
              0.0000000000E+00  5.0000000000E-01  5.0000000000E-01
              2.5000000000E-01  7.5000000000E-01  7.5000000000E-01
              5.0000000000E-01  0.0000000000E+00  5.0000000000E-01
              7.5000000000E-01  2.5000000000E-01  7.5000000000E-01
              5.0000000000E-01  5.0000000000E-01  0.0000000000E+00
              7.5000000000E-01  7.5000000000E-01  2.5000000000E-01
     znucl     14.00000

================================================================================

- Total cpu        time (s,m,h):          1.0        0.02      0.000
- Total wall clock time (s,m,h):          1.0        0.02      0.000

- For major independent code sections, cpu and wall times (sec),
- as well as % of the total time and number of calls 

- routine                 cpu     %       wall     %      number of calls 
-                                                          (-1=no count)
- timing timab           0.349  36.2      0.348  36.1             11
- pspini                 0.226  23.4      0.225  23.4              1
- invars2                0.110  11.4      0.111  11.5              1
- abinit(2)              0.032   3.3      0.032   3.3              1
- fourwf(pot)            0.030   3.1      0.029   3.0             74
- fourwf(den)            0.030   3.1      0.029   3.0            128
- ewald                  0.015   1.6      0.015   1.6              1
- stress                 0.013   1.3      0.014   1.5              1
- nonlop(forstr)         0.011   1.1      0.010   1.0             64
- vtowfk(ssdiag)         0.010   1.0      0.008   0.8             -1
- ewald2                 0.009   0.9      0.009   0.9              1
- mkcore                 0.008   0.8      0.008   0.8              3
- inwffil                0.008   0.8      0.008   0.8              1
- forces                 0.007   0.7      0.006   0.6              1
- nonlop(forces)         0.006   0.6      0.010   1.0             64
- fourdp                 0.006   0.6      0.002   0.2             13
- rwwf                   0.005   0.5      0.005   0.5              8
- nonlop(apply)          0.005   0.5      0.008   0.8             74
- xc:pot/=fourdp         0.002   0.2      0.005   0.5              2
- 51   others            0.007   0.7      0.005   0.5

- subtotal               0.889  92.2      0.887  92.1

================================================================================

 Calculation completed.
.Delivered    1 WARNINGs and   1 COMMENTs to log file.
+Overall time at end (sec) : cpu=          1.0  wall=          1.0
