
.Version 5.6.3  of ABINIT 
.(sequential version, prepared for a x86_64_linux_gcc4.3 computer) 

.Copyright (C) 1998-2008 ABINIT group . 
 ABINIT comes with ABSOLUTELY NO WARRANTY.
 It is free software, and you are welcome to redistribute it
 under certain conditions (GNU General Public License,
 see ~abinit/COPYING or http://www.gnu.org/copyleft/gpl.txt).

 ABINIT is a project of the Universite Catholique de Louvain,
 Corning Inc. and other collaborators, see ~abinit/doc/developers/contributors.txt .
 Please read ~abinit/doc/users/acknowledgments.html for suggested
 acknowledgments of the ABINIT effort.
 For more information, see http://www.abinit.org .

.Starting date : Thu  6 Nov 2008.
  
- input  file    -> /home/gonze/ABINIT/ABINITv5.6.3/test_gcc43/5.6.3-private/tests/bigdft/Input/t03.in
- output file    -> t03.out
- root for input  files -> t03i
- root for output files -> t03o


 Symmetries : space group P1 (#  1); Bravais aP (primitive triclinic)
================================================================================
 Values of the parameters that define the memory need for DATASET  1 (WVL).
  wvl_hgrid =  0.500   nwfshist =      0 wvl_crmult =  6.000 wvl_frmult = 10.000
  tl_radius =  0.000  tl_nprccg =     30 wvl_cpmult = 10.000 wvl_fpmult = 10.000
      natom =      2     ntypat =      1    nstates =      1     nsppol =      1
================================================================================
================================================================================

 -outvars: echo values of preprocessed input variables --------
     acell    7.0000000000E+00  7.0000000000E+00  7.0000000000E+00 Bohr
       amu    1.00794000E+00
      ecut    1.00000000E+01 Hartree
  icoulomb         1
      iscf         2
    istwfk      2
P    mkmem         1
     natom         2
     nband         1
     ngfft        20      20      20
      nkpt         1
 nscforder        14
     nstep        20
      nsym         1
    ntypat         1
       occ    2.000000
 optstress         0
    prteig         0
   spgroup         1
    toldfe    1.00000000E-06 Hartree
     typat    1  1
    usewvl         1
 wvl_nprcc         5
    xangst    1.5875316258E+00  1.8521202301E+00  1.8521202301E+00
              2.1167088344E+00  1.8521202301E+00  1.8521202301E+00
     xcart    3.0000000000E+00  3.5000000000E+00  3.5000000000E+00
              4.0000000000E+00  3.5000000000E+00  3.5000000000E+00
      xred    4.2857142857E-01  5.0000000000E-01  5.0000000000E-01
              5.7142857143E-01  5.0000000000E-01  5.0000000000E-01
     znucl      1.00000

================================================================================

 chkinp: Checking input parameters for consistency.

================================================================================
== DATASET  1 ==================================================================

 Real(R)+Recip(G) space primitive vectors, cartesian coordinates (Bohr,Bohr^-1):
 R(1)=  7.0000000  0.0000000  0.0000000  G(1)=  0.1428571  0.0000000  0.0000000
 R(2)=  0.0000000  7.0000000  0.0000000  G(2)=  0.0000000  0.1428571  0.0000000
 R(3)=  0.0000000  0.0000000  7.0000000  G(3)=  0.0000000  0.0000000  0.1428571
 Unit cell volume ucvol=  3.4300000E+02 bohr^3
 Angles (23,13,12)=  9.00000000E+01  9.00000000E+01  9.00000000E+01 degrees

 getcut: wavevector=  0.0000  0.0000  0.0000  ngfft=  20  20  20
         ecut(hartree)=     10.000   => boxcut(ratio)=   2.00709

--- Pseudopotential description ------------------------------------------------
- pspini: atom type   1  psp file is /home/gonze/ABINIT/ABINITv5.6.3/test_gcc43/5.6.3-private/tests/Psps_for_tests/01h.pspgth
- pspatm: opening atomic psp file    /home/gonze/ABINIT/ABINITv5.6.3/test_gcc43/5.6.3-private/tests/Psps_for_tests/01h.pspgth
 Goedecker-Teter-Hutter  Wed May  8 14:27:44 EDT 1996
   1.00000   1.00000    960508                znucl, zion, pspdat
    2    1    0    0      2001   0.00000      pspcod,pspxc,lmax,lloc,mmax,r2well
 rloc=   0.2000000
  cc1=  -4.0663326; cc2=   0.6778322; cc3=   0.0000000; cc4=   0.0000000
  rrs=   0.0000000; h1s=   0.0000000; h2s=   0.0000000
  rrp=   0.0000000; h1p=   0.0000000
  radii_cf(1)=   1.3600000; radii_cf(2)=   0.2000000; rad_cov=   0.6000000
-  Local part computed in real space.
  | dr spline step is :    0.0040415
  | r >   12.1243557 is set to 0.
  | last non-nul potential value is :   -0.0824786

 pspatm : COMMENT -
  the projectors are not normalized,
  so that the KB energies are not consistent with
  definition in PRB44, 8503 (1991).
  However, this does not influence the results obtained hereafter.
 pspatm: epsatm=   -0.00480358
         --- l  ekb(1:nproj) -->
 pspatm: atomic psp has been read  and splines computed

  -1.92143215E-02                                ecore*ucvol(ha*bohr**3)
--------------------------------------------------------------------------------


 setup2: nwvl coarse and fine are   19967     351

================================================================================

     iter   Etot(hartree)      deltaE(h)  grdnorm    vres2    diffor    maxfor
 ETOT  1  -1.0117319016825    -1.012E+00 2.873E-01 5.474E+01 0.000E+00 0.000E+00
 ETOT  2  -1.0767837849466    -6.505E-02 9.355E-02 4.902E+00 0.000E+00 0.000E+00
 ETOT  3  -1.0795982213782    -2.814E-03 1.869E-02 2.768E-01 0.000E+00 0.000E+00
 ETOT  4  -1.0797311560404    -1.329E-04 4.395E-03 9.769E-03 0.000E+00 0.000E+00
 ETOT  5  -1.0797389920796    -7.836E-06 1.188E-03 9.087E-04 0.000E+00 0.000E+00
 ETOT  6  -1.0797395172723    -5.252E-07 3.362E-04 9.711E-05 0.000E+00 0.000E+00
 ETOT  7  -1.0797395596470    -4.237E-08 1.028E-04 1.166E-05 0.000E+00 0.000E+00

 At SCF step    7, etot is converged :
  for the second time, diff in etot=  4.237E-08 < toldfe=  1.000E-06
================================================================================

 ----iterations are completed or convergence reached----

 Mean square residual over all n,k,spin=   0.0000E+00; max=  0.0000E+00
   0.0000  0.0000  0.0000    1  0.00000E+00 kpt; spin; max resid(k); each band:
 0.00E+00
 reduced coordinates (array xred) for    2 atoms
       0.470588235294      0.500000000000      0.500000000000
       0.529411764706      0.500000000000      0.500000000000
 rms dE/dt=  3.3931E+00; max dE/dt=  5.8768E+00; dE/dt below (all hartree)
    1       5.876796169648     -0.000081878058     -0.000081878058
    2      -5.877137784703     -0.000083763691     -0.000083763692

 cartesian coordinates (angstrom) at end:
    1      4.23341766872000     4.23341766872000     4.23341766872000
    2      4.76259487731000     4.23341766872000     4.23341766872000

 cartesian forces (hartree/bohr) at end:
    1     -0.34570393983387    -0.00000005892604    -0.00000005892604
    2      0.34570393983387     0.00000005892604     0.00000005892604
 frms,max,avg= 1.9959226E-01 3.4570394E-01   1.005E-05  5.176E-06  5.176E-06 h/b

 cartesian forces (eV/Angstrom) at end:
    1    -17.77680983993846    -0.00000303009856    -0.00000303009854
    2     17.77680983993846     0.00000303009856     0.00000303009854
 frms,max,avg= 1.0263446E+01 1.7776810E+01   5.167E-04  2.662E-04  2.662E-04 e/A
 length scales= 17.000000000000 16.000000000000 16.000000000000 bohr
              =  8.996012546030  8.466835337440  8.466835337440 angstroms
 Fermi (or HOMO) energy (hartree) =   0.00000   Average Vxc (hartree)=  -0.00509
 Eigenvalues (hartree) for nkpt=   1  k points:
 kpt#   1, nband=  1, wtk=  1.00000, kpt=  0.0000  0.0000  0.0000 (reduced coord)
  -0.42078
 Total charge density [el/Bohr^3]
,     Maximum=    5.0322E-01  at reduced coord.    0.4949    0.4842    0.4842
,Next maximum=    5.0321E-01  at reduced coord.    0.4747    0.4842    0.4842
,     Minimum=    1.0000E-20  at reduced coord.    0.0000    0.0000    0.0000
,Next minimum=    1.0000E-20  at reduced coord.    0.0101    0.0000    0.0000

--------------------------------------------------------------------------------
 Components of total free energy (in Hartree) :

    Kinetic energy  =  1.36141763488519E+00
    Hartree energy  =  1.46108601016944E+00
    XC energy       = -7.25287303366694E-01
    Ion-ion energy  =  1.00000000000000E+00
    PspCore energy  =  0.00000000000000E+00
    Loc. psp. energy= -5.12515283885963E+00
    NL   psp  energy=  0.00000000000000E+00
    XC pot. energy  = -9.48196933677207E-01
    >>>>>>>>> Etotal= -1.07973956349450E+00

 Other information on the energy :
    Total energy(eV)= -2.93812077310776E+01 ; Band energy (Ha)=   0.0000000000E+00
--------------------------------------------------------------------------------

== END DATASET(S) ==============================================================
================================================================================
  
 -outvars: echo values of variables after computation  --------
     acell    1.7000000000E+01  1.6000000000E+01  1.6000000000E+01 Bohr
       amu    1.00794000E+00
      ecut    1.00000000E+01 Hartree
    etotal   -1.0797395635E+00
     fcart   -3.4570393983E-01 -5.8926040129E-08 -5.8926039810E-08
              3.4570393983E-01  5.8926040129E-08  5.8926039810E-08
  icoulomb         1
      iscf         2
    istwfk      2
P    mkmem         1
     natom         2
     nband         1
     ngfft        20      20      20
      nkpt         1
 nscforder        14
     nstep        20
      nsym         1
    ntypat         1
       occ    2.000000
 optstress         0
    prteig         0
   spgroup         1
    strten    9.9999999999E+99  9.9999999999E+99  9.9999999999E+99
              9.9999999999E+99  9.9999999999E+99  9.9999999999E+99
    toldfe    1.00000000E-06 Hartree
     typat    1  1
    usewvl         1
 wvl_nprcc         5
    xangst    4.2334176687E+00  4.2334176687E+00  4.2334176687E+00
              4.7625948773E+00  4.2334176687E+00  4.2334176687E+00
     xcart    8.0000000000E+00  8.0000000000E+00  8.0000000000E+00
              9.0000000000E+00  8.0000000000E+00  8.0000000000E+00
      xred    4.7058823529E-01  5.0000000000E-01  5.0000000000E-01
              5.2941176471E-01  5.0000000000E-01  5.0000000000E-01
     znucl      1.00000

================================================================================

- Total cpu        time (s,m,h):          9.4        0.16      0.003
- Total wall clock time (s,m,h):          9.4        0.16      0.003

- For major independent code sections, cpu and wall times (sec),
- as well as % of the total time and number of calls 

- routine                 cpu     %       wall     %      number of calls 
-                                                          (-1=no count)
- inwffil                2.764  29.3      2.764  29.3              1
- forces                 0.385   4.1      0.386   4.1              1
- timing timab           0.342   3.6      0.343   3.6             11
- invars2                0.103   1.1      0.102   1.1              1
- 66   others            0.030   0.3      0.032   0.3

- subtotal               3.624  38.5      3.627  38.5

================================================================================

 Calculation completed.
.Delivered    2 WARNINGs and   5 COMMENTs to log file.
+Overall time at end (sec) : cpu=          9.4  wall=          9.4
