
.Version 5.6.3  of ABINIT 
.(sequential version, prepared for a x86_64_linux_gcc4.3 computer) 

.Copyright (C) 1998-2008 ABINIT group . 
 ABINIT comes with ABSOLUTELY NO WARRANTY.
 It is free software, and you are welcome to redistribute it
 under certain conditions (GNU General Public License,
 see ~abinit/COPYING or http://www.gnu.org/copyleft/gpl.txt).

 ABINIT is a project of the Universite Catholique de Louvain,
 Corning Inc. and other collaborators, see ~abinit/doc/developers/contributors.txt .
 Please read ~abinit/doc/users/acknowledgments.html for suggested
 acknowledgments of the ABINIT effort.
 For more information, see http://www.abinit.org .

.Starting date : Thu  6 Nov 2008.
  
- input  file    -> /home/gonze/ABINIT/ABINITv5.6.3/test_gcc43/5.6.3-private/tests/bigdft/Input/t10.in
- output file    -> t10.out
- root for input  files -> t10i
- root for output files -> t10o


 Symmetries : space group P1 (#  1); Bravais aP (primitive triclinic)
================================================================================
 Values of the parameters that define the memory need for DATASET  1 (WVL).
  wvl_hgrid =  0.500   nwfshist =      6 wvl_crmult =  6.000 wvl_frmult = 10.000
  tl_radius =  0.000  tl_nprccg =     30 wvl_cpmult = 10.000 wvl_fpmult = 10.000
      natom =      2     ntypat =      1    nstates =      1     nsppol =      1
================================================================================
================================================================================

 -outvars: echo values of preprocessed input variables --------
     acell    7.0000000000E+00  7.0000000000E+00  7.0000000000E+00 Bohr
       amu    1.00794000E+00
      ecut    1.00000000E+01 Hartree
  icoulomb         1
    ionmov         2
      iscf         2
    istwfk      2
P    mkmem         1
     natom         2
     nband         1
     ngfft        20      20      20
      nkpt         1
 nscforder        14
     nstep        20
      nsym         1
     ntime        20
    ntypat         1
  nwfshist         6
       occ    2.000000
 optstress         0
    prteig         0
   spgroup         1
    tolwfr    1.00000000E-04
     typat    1  1
    usewvl         1
 wvl_nprcc         5
    xangst    1.5875316258E+00  1.8521202301E+00  1.8521202301E+00
              2.1167088344E+00  1.8521202301E+00  1.8521202301E+00
     xcart    3.0000000000E+00  3.5000000000E+00  3.5000000000E+00
              4.0000000000E+00  3.5000000000E+00  3.5000000000E+00
      xred    4.2857142857E-01  5.0000000000E-01  5.0000000000E-01
              5.7142857143E-01  5.0000000000E-01  5.0000000000E-01
     znucl      1.00000

================================================================================

 chkinp: Checking input parameters for consistency.

================================================================================
== DATASET  1 ==================================================================

 Real(R)+Recip(G) space primitive vectors, cartesian coordinates (Bohr,Bohr^-1):
 R(1)=  7.0000000  0.0000000  0.0000000  G(1)=  0.1428571  0.0000000  0.0000000
 R(2)=  0.0000000  7.0000000  0.0000000  G(2)=  0.0000000  0.1428571  0.0000000
 R(3)=  0.0000000  0.0000000  7.0000000  G(3)=  0.0000000  0.0000000  0.1428571
 Unit cell volume ucvol=  3.4300000E+02 bohr^3
 Angles (23,13,12)=  9.00000000E+01  9.00000000E+01  9.00000000E+01 degrees

 getcut: wavevector=  0.0000  0.0000  0.0000  ngfft=  20  20  20
         ecut(hartree)=     10.000   => boxcut(ratio)=   2.00709

--- Pseudopotential description ------------------------------------------------
- pspini: atom type   1  psp file is /home/gonze/ABINIT/ABINITv5.6.3/test_gcc43/5.6.3-private/tests/Psps_for_tests/01h.pspgth
- pspatm: opening atomic psp file    /home/gonze/ABINIT/ABINITv5.6.3/test_gcc43/5.6.3-private/tests/Psps_for_tests/01h.pspgth
 Goedecker-Teter-Hutter  Wed May  8 14:27:44 EDT 1996
   1.00000   1.00000    960508                znucl, zion, pspdat
    2    1    0    0      2001   0.00000      pspcod,pspxc,lmax,lloc,mmax,r2well
 rloc=   0.2000000
  cc1=  -4.0663326; cc2=   0.6778322; cc3=   0.0000000; cc4=   0.0000000
  rrs=   0.0000000; h1s=   0.0000000; h2s=   0.0000000
  rrp=   0.0000000; h1p=   0.0000000
  radii_cf(1)=   1.3600000; radii_cf(2)=   0.2000000; rad_cov=   0.6000000
-  Local part computed in real space.
  | dr spline step is :    0.0040415
  | r >   12.1243557 is set to 0.
  | last non-nul potential value is :   -0.0824786

 pspatm : COMMENT -
  the projectors are not normalized,
  so that the KB energies are not consistent with
  definition in PRB44, 8503 (1991).
  However, this does not influence the results obtained hereafter.
 pspatm: epsatm=   -0.00480358
         --- l  ekb(1:nproj) -->
 pspatm: atomic psp has been read  and splines computed

  -1.92143215E-02                                ecore*ucvol(ha*bohr**3)
--------------------------------------------------------------------------------


 setup2: nwvl coarse and fine are   19967     351

================================================================================

 BROYDEN STEP NUMBER   0  ------------------------------------------------------

     iter   Etot(hartree)      deltaE(h)  grdnorm    vres2    diffor    maxfor
 ETOT  1  -1.0117319016825    -1.012E+00 2.873E-01 5.474E+01 0.000E+00 0.000E+00
 ETOT  2  -1.0767837849466    -6.505E-02 9.355E-02 5.575E+00 0.000E+00 0.000E+00
 ETOT  3  -1.0796530708023    -2.869E-03 1.733E-02 2.768E-01 0.000E+00 0.000E+00
 ETOT  4  -1.0797372461676    -8.418E-05 2.956E-03 9.874E-03 0.000E+00 0.000E+00
 ETOT  5  -1.0797394184327    -2.172E-06 6.957E-04 2.868E-04 0.000E+00 0.000E+00
 ETOT  6  -1.0797395577057    -1.393E-07 1.921E-04 9.587E-06 0.000E+00 0.000E+00
 ETOT  7  -1.0797395636423    -5.937E-09 2.851E-05 3.078E-07 0.000E+00 0.000E+00

 At SCF step    7   max grdnorm=  2.85E-05 < tolwfr=  1.00E-04 =>converged.
 Cartesian coordinates (bohr)
  8.00000000000000E+00  8.00000000000000E+00  8.00000000000000E+00
  9.00000000000000E+00  8.00000000000000E+00  8.00000000000000E+00
 Cartesian forces (hart/bohr); max,rms= 3.45698E-01 1.99589E-01 (free atoms)
 -3.45698464724600E-01 -1.05703788700792E-07 -1.05703787284531E-07
  3.45698464724600E-01  1.05703788700792E-07  1.05703787284531E-07

 At the end of Broyden step  0, total energy= -1.07973956393769E+00 Ha.


 BROYDEN STEP NUMBER   1  ------------------------------------------------------

     iter   Etot(hartree)      deltaE(h)  grdnorm    vres2    diffor    maxfor
 ETOT  1 -0.91345392272464    -9.135E-01 8.616E-01 2.561E+01 0.000E+00 0.000E+00
 ETOT  2  -1.1147255495552    -2.013E-01 1.830E-01 1.824E+00 0.000E+00 0.000E+00
 ETOT  3  -1.1279446194851    -1.322E-02 5.134E-02 2.709E-01 0.000E+00 0.000E+00
 ETOT  4  -1.1294592696655    -1.515E-03 1.298E-02 9.401E-03 0.000E+00 0.000E+00
 ETOT  5  -1.1294872774561    -2.801E-05 2.517E-03 1.154E-03 0.000E+00 0.000E+00
 ETOT  6  -1.1294886511277    -1.374E-06 4.244E-04 6.397E-05 0.000E+00 0.000E+00
 ETOT  7  -1.1294886893500    -3.822E-08 9.207E-05 4.625E-06 0.000E+00 0.000E+00

 At SCF step    7   max grdnorm=  9.21E-05 < tolwfr=  1.00E-04 =>converged.
 Cartesian coordinates (bohr)
  7.65430153527540E+00  7.99999989429621E+00  7.99999989429621E+00
  9.34569846472460E+00  8.00000010570379E+00  8.00000010570379E+00
 Cartesian forces (hart/bohr); max,rms= 5.78640E-02 3.34078E-02 (free atoms)
  5.78639938138581E-02  3.69032931152249E-08  3.69032913398989E-08
 -5.78639938138581E-02 -3.69032931152249E-08 -3.69032913398989E-08

 At the end of Broyden step  1, total energy= -1.12948869131361E+00 Ha.


 BROYDEN STEP NUMBER   2  ------------------------------------------------------

     iter   Etot(hartree)      deltaE(h)  grdnorm    vres2    diffor    maxfor
 ETOT  1  -1.1309062109897    -1.131E+00 1.131E-01 3.170E-01 0.000E+00 0.000E+00
 ETOT  2  -1.1340368367033    -3.131E-03 2.621E-02 6.566E-02 0.000E+00 0.000E+00
 ETOT  3  -1.1342998514614    -2.630E-04 6.912E-03 1.806E-03 0.000E+00 0.000E+00
 ETOT  4  -1.1343040553188    -4.204E-06 8.155E-04 1.476E-04 0.000E+00 0.000E+00
 ETOT  5  -1.1343043122636    -2.569E-07 2.512E-04 1.015E-05 0.000E+00 0.000E+00
 ETOT  6  -1.1343043251712    -1.291E-08 4.874E-05 1.164E-06 0.000E+00 0.000E+00

 At SCF step    6   max grdnorm=  4.87E-05 < tolwfr=  1.00E-04 =>converged.
 Cartesian coordinates (bohr)
  8.20191771557533E+00  7.99999992564381E+00  7.99999992564381E+00
  9.79808228442467E+00  8.00000007435620E+00  8.00000007435620E+00
 Cartesian forces (hart/bohr); max,rms= 4.17496E-02 2.41042E-02 (free atoms)
  4.17496259819326E-02  1.36881930341836E-07  1.36881928150408E-07
 -4.17496259819326E-02 -1.36881930341835E-07 -1.36881928150408E-07

 At the end of Broyden step  2, total energy= -1.13430432600169E+00 Ha.


 BROYDEN STEP NUMBER   3  ------------------------------------------------------

     iter   Etot(hartree)      deltaE(h)  grdnorm    vres2    diffor    maxfor
 ETOT  1  -1.1323852637997    -1.132E+00 1.319E-01 4.593E-01 0.000E+00 0.000E+00
 ETOT  2  -1.1369940369197    -4.609E-03 3.131E-02 9.317E-02 0.000E+00 0.000E+00
 ETOT  3  -1.1373684856824    -3.744E-04 8.046E-03 2.675E-03 0.000E+00 0.000E+00
 ETOT  4  -1.1373744295059    -5.944E-06 9.816E-04 2.488E-04 0.000E+00 0.000E+00
 ETOT  5  -1.1373748093570    -3.799E-07 3.331E-04 1.924E-05 0.000E+00 0.000E+00
 ETOT  6  -1.1373748297978    -2.044E-08 6.704E-05 2.962E-06 0.000E+00 0.000E+00

 At SCF step    6   max grdnorm=  6.70E-05 < tolwfr=  1.00E-04 =>converged.
 Cartesian coordinates (bohr)
  8.00860459484075E+00  8.00000037111065E+00  8.00000037111064E+00
  9.49139540515926E+00  7.99999962888935E+00  7.99999962888935E+00
 Cartesian forces (hart/bohr); max,rms= 1.03253E-02 5.96129E-03 (free atoms)
  1.03252504880565E-02 -8.67149009609095E-09 -8.67148960574104E-09
 -1.03252504880565E-02  8.67149009609095E-09  8.67148960574189E-09

 At the end of Broyden step  3, total energy= -1.13737483117940E+00 Ha.


 BROYDEN STEP NUMBER   4  ------------------------------------------------------

     iter   Etot(hartree)      deltaE(h)  grdnorm    vres2    diffor    maxfor
 ETOT  1  -1.1369540765050    -1.137E+00 4.517E-02 5.466E-02 0.000E+00 0.000E+00
 ETOT  2  -1.1374836671092    -5.296E-04 1.060E-02 8.241E-03 0.000E+00 0.000E+00
 ETOT  3  -1.1375226086885    -3.894E-05 2.646E-03 2.802E-04 0.000E+00 0.000E+00
 ETOT  4  -1.1375233649222    -7.562E-07 4.807E-04 2.433E-05 0.000E+00 0.000E+00
 ETOT  5  -1.1375234095014    -4.458E-08 1.210E-04 1.434E-06 0.000E+00 0.000E+00
 ETOT  6  -1.1375234118124    -2.311E-09 2.936E-05 1.554E-07 0.000E+00 0.000E+00

 At SCF step    6   max grdnorm=  2.94E-05 < tolwfr=  1.00E-04 =>converged.
 Cartesian coordinates (bohr)
  8.02723046149899E+00  8.00000046098309E+00  8.00000046098308E+00
  9.47276953850100E+00  7.99999953901692E+00  7.99999953901693E+00
 Cartesian forces (hart/bohr); max,rms= 2.51048E-03 1.44943E-03 (free atoms)
 -2.51048049824138E-03 -1.61716319569508E-08 -1.61716289635592E-08
  2.51048049824138E-03  1.61716319569499E-08  1.61716289635592E-08

 At the end of Broyden step  4, total energy= -1.13752341194334E+00 Ha.


 BROYDEN STEP NUMBER   5  ------------------------------------------------------

     iter   Etot(hartree)      deltaE(h)  grdnorm    vres2    diffor    maxfor
 ETOT  1  -1.1375100873057    -1.138E+00 8.990E-03 2.161E-03 0.000E+00 0.000E+00
 ETOT  2  -1.1375307444236    -2.066E-05 2.084E-03 2.821E-04 0.000E+00 0.000E+00
 ETOT  3  -1.1375321938070    -1.449E-06 4.968E-04 8.683E-06 0.000E+00 0.000E+00
 ETOT  4  -1.1375322264859    -3.268E-08 1.102E-04 7.566E-07 0.000E+00 0.000E+00
 ETOT  5  -1.1375322281493    -1.663E-09 2.128E-05 4.073E-08 0.000E+00 0.000E+00

 At SCF step    5   max grdnorm=  2.13E-05 < tolwfr=  1.00E-04 =>converged.
 Cartesian coordinates (bohr)
  8.02358751548675E+00  8.00000042870065E+00  8.00000042870064E+00
  9.47641248451325E+00  7.99999957129936E+00  7.99999957129936E+00
 Cartesian forces (hart/bohr); max,rms= 8.38060E-05 4.83854E-05 (free atoms)
  8.38060057093935E-05 -1.37589566321563E-08 -1.37589538709907E-08
 -8.38060057093935E-05  1.37589566321563E-08  1.37589538709915E-08

 At the end of Broyden step  5, total energy= -1.13753222823051E+00 Ha.


 BROYDEN STEP NUMBER   6  ------------------------------------------------------

     iter   Etot(hartree)      deltaE(h)  grdnorm    vres2    diffor    maxfor
 ETOT  1  -1.1375322151459    -1.138E+00 2.898E-04 2.234E-06 0.000E+00 0.000E+00
 ETOT  2  -1.1375322366179    -2.147E-08 6.697E-05 3.128E-07 0.000E+00 0.000E+00

 At SCF step    2   max grdnorm=  6.70E-05 < tolwfr=  1.00E-04 =>converged.
 Cartesian coordinates (bohr)
  8.02370519745943E+00  8.00000041590660E+00  8.00000041590660E+00
  9.47629480254058E+00  7.99999958409340E+00  7.99999958409340E+00
 Cartesian forces (hart/bohr); max,rms= 1.67815E-06 9.68988E-07 (free atoms)
 -1.67814550013079E-06 -1.79204701755190E-08 -1.79204670386883E-08
  1.67814550013079E-06  1.79204701755198E-08  1.79204670386875E-08

 At the end of Broyden step  6, total energy= -1.13753223815480E+00 Ha.


 At Broyd/MD step   6, gradients are converged :
  max grad (force/stress) = 1.6781E-06 < tolmxf= 5.0000E-05 ha/bohr (free atoms)

================================================================================

 ----iterations are completed or convergence reached----

 Mean square residual over all n,k,spin=   0.0000E+00; max=  0.0000E+00
   0.0000  0.0000  0.0000    1  0.00000E+00 kpt; spin; max resid(k); each band:
 0.00E+00
 reduced coordinates (array xred) for    2 atoms
       0.458497439855      0.500000025994      0.500000025994
       0.541502560145      0.499999974006      0.499999974006
 rms dE/dt=  7.5179E-05; max dE/dt=  0.0000E+00; dE/dt below (all hartree)
    1      -0.000015896434     -0.000083511738     -0.000083511738
    2      -0.000074631527     -0.000084085193     -0.000084085193

 cartesian coordinates (angstrom) at end:
    1      4.12464872125664     4.23341788880829     4.23341788880829
    2      4.87136382477337     4.23341744863171     4.23341744863171

 cartesian forces (hartree/bohr) at end:
    1     -0.00000172750272    -0.00000001792047    -0.00000001792047
    2      0.00000172750272     0.00000001792047     0.00000001792047
 frms,max,avg= 9.9748148E-07 1.7275027E-06   2.663E-06  5.237E-06  5.237E-06 h/b

 cartesian forces (eV/Angstrom) at end:
    1     -0.00008883175407    -0.00000092150755    -0.00000092150739
    2      0.00008883175407     0.00000092150755     0.00000092150739
 frms,max,avg= 5.1292556E-05 8.8831754E-05   1.369E-04  2.693E-04  2.693E-04 e/A
 length scales= 17.500000000000 16.000000000000 16.000000000000 bohr
              =  9.260601150325  8.466835337440  8.466835337440 angstroms
 Fermi (or HOMO) energy (hartree) =   0.00000   Average Vxc (hartree)=  -0.00581
 Eigenvalues (hartree) for nkpt=   1  k points:
 kpt#   1, nband=  1, wtk=  1.00000, kpt=  0.0000  0.0000  0.0000 (reduced coord)
  -0.37230
 Total charge density [el/Bohr^3]
,     Maximum=    3.3984E-01  at reduced coord.    0.7374    0.4211    0.4947
,Next maximum=    3.3984E-01  at reduced coord.    0.6768    0.4211    0.4947
,     Minimum=    1.0000E-20  at reduced coord.    0.0000    0.0000    0.0000
,Next minimum=    1.0000E-20  at reduced coord.    0.0101    0.0000    0.0000

--------------------------------------------------------------------------------
 Components of total free energy (in Hartree) :

    Kinetic energy  =  1.07696753073229E+00
    Hartree energy  =  1.27853273939101E+00
    XC energy       = -6.44301125595850E-01
    Ion-ion energy  =  6.88425689197884E-01
    PspCore energy  =  0.00000000000000E+00
    Loc. psp. energy= -4.37863090195447E+00
    NL   psp  energy=  0.00000000000000E+00
    XC pot. energy  = -8.41473830074328E-01
    >>>>>>>>> Etotal= -1.13753223815480E+00

 Other information on the energy :
    Total energy(eV)= -3.09538263855553E+01 ; Band energy (Ha)=   0.0000000000E+00
--------------------------------------------------------------------------------
 rms coord change=  6.9806E-03   atom, delta coord (reduced):
     1       -0.012090795439      0.000000025994      0.000000025994
     2        0.012090795439     -0.000000025994     -0.000000025994

== END DATASET(S) ==============================================================
================================================================================
  
 -outvars: echo values of variables after computation  --------
     acell    1.7500000000E+01  1.6000000000E+01  1.6000000000E+01 Bohr
       amu    1.00794000E+00
      ecut    1.00000000E+01 Hartree
    etotal   -1.1375322382E+00
     fcart   -1.6781455001E-06 -1.7920470176E-08 -1.7920467039E-08
              1.6781455001E-06  1.7920470176E-08  1.7920467039E-08
  icoulomb         1
    ionmov         2
      iscf         2
    istwfk      2
P    mkmem         1
     natom         2
     nband         1
     ngfft        20      20      20
      nkpt         1
 nscforder        14
     nstep        20
      nsym         1
     ntime        20
    ntypat         1
  nwfshist         6
       occ    2.000000
 optstress         0
    prteig         0
   spgroup         1
    strten    9.9999999999E+99  9.9999999999E+99  9.9999999999E+99
              9.9999999999E+99  9.9999999999E+99  9.9999999999E+99
    tolwfr    1.00000000E-04
     typat    1  1
    usewvl         1
 wvl_nprcc         5
    xangst    4.2459619189E+00  4.2334178888E+00  4.2334178888E+00
              5.0146392314E+00  4.2334174486E+00  4.2334174486E+00
     xcart    8.0237051975E+00  8.0000004159E+00  8.0000004159E+00
              9.4762948025E+00  7.9999995841E+00  7.9999995841E+00
      xred    4.5849743985E-01  5.0000002599E-01  5.0000002599E-01
              5.4150256015E-01  4.9999997401E-01  4.9999997401E-01
     znucl      1.00000

================================================================================

- Total cpu        time (s,m,h):         47.1        0.78      0.013
- Total wall clock time (s,m,h):         47.1        0.78      0.013

- For major independent code sections, cpu and wall times (sec),
- as well as % of the total time and number of calls 

- routine                 cpu     %       wall     %      number of calls 
-                                                          (-1=no count)
- inwffil                3.198   6.8      3.197   6.8              1
- forces                 2.960   6.3      2.958   6.3              7
- timing timab           0.365   0.8      0.365   0.8             11
- invars2                0.292   0.6      0.292   0.6              1
- 66   others            0.096   0.2      0.106   0.2

- subtotal               6.911  14.7      6.918  14.7

================================================================================

 Calculation completed.
.Delivered    8 WARNINGs and   5 COMMENTs to log file.
+Overall time at end (sec) : cpu=         47.1  wall=         47.1
