
.Version 5.6.3  of ABINIT 
.(sequential version, prepared for a x86_64_linux_gcc4.3 computer) 

.Copyright (C) 1998-2008 ABINIT group . 
 ABINIT comes with ABSOLUTELY NO WARRANTY.
 It is free software, and you are welcome to redistribute it
 under certain conditions (GNU General Public License,
 see ~abinit/COPYING or http://www.gnu.org/copyleft/gpl.txt).

 ABINIT is a project of the Universite Catholique de Louvain,
 Corning Inc. and other collaborators, see ~abinit/doc/developers/contributors.txt .
 Please read ~abinit/doc/users/acknowledgments.html for suggested
 acknowledgments of the ABINIT effort.
 For more information, see http://www.abinit.org .

.Starting date : Thu  6 Nov 2008.
  
- input  file    -> /home/gonze/ABINIT/ABINITv5.6.3/test_gcc43/5.6.3-private/tests/bigdft/Input/t11.in
- output file    -> t11.out
- root for input  files -> t11i
- root for output files -> t11o


 Symmetries : space group P1 (#  1); Bravais aP (primitive triclinic)
================================================================================
 Values of the parameters that define the memory need for DATASET  1 (WVL).
  wvl_hgrid =  0.450   nwfshist =      6 wvl_crmult =  5.000 wvl_frmult = 10.000
  tl_radius =  0.000  tl_nprccg =     30 wvl_cpmult = 12.000 wvl_fpmult = 10.000
      natom =      1     ntypat =      1    nstates =      4     nsppol =      1
================================================================================
================================================================================

 -outvars: echo values of preprocessed input variables --------
     acell    2.0000000000E+01  2.0000000000E+01  2.0000000000E+01 Bohr
       amu    2.80855000E+01
  icoulomb         1
      iscf         2
    istwfk      2
P    mkmem         1
     natom         1
     nband         4
     ngfft         2       2       2
      nkpt         1
     nstep        20
      nsym         1
    ntypat         1
  nwfshist         6
       occ    2.000000  0.666667  0.666667  0.666667
    occopt         0
 optforces         0
 optstress         0
    prtden         0
    prteig         0
     prtwf         0
   spgroup         1
    tolwfr    1.00000000E-04
     typat    1
    usewvl         1
 wvl_crmul    5.00000000E+00
 wvl_cpmul    1.20000000E+01
 wvl_hgrid    4.50000000E-01
    xangst    5.2917720859E+00  5.2917720859E+00  5.2917720859E+00
     xcart    1.0000000000E+01  1.0000000000E+01  1.0000000000E+01
      xred    5.0000000000E-01  5.0000000000E-01  5.0000000000E-01
     znucl     14.00000

================================================================================

 chkinp: Checking input parameters for consistency.

================================================================================
== DATASET  1 ==================================================================

 Real(R)+Recip(G) space primitive vectors, cartesian coordinates (Bohr,Bohr^-1):
 R(1)= 20.0000000  0.0000000  0.0000000  G(1)=  0.0500000  0.0000000  0.0000000
 R(2)=  0.0000000 20.0000000  0.0000000  G(2)=  0.0000000  0.0500000  0.0000000
 R(3)=  0.0000000  0.0000000 20.0000000  G(3)=  0.0000000  0.0000000  0.0500000
 Unit cell volume ucvol=  8.0000000E+03 bohr^3
 Angles (23,13,12)=  9.00000000E+01  9.00000000E+01  9.00000000E+01 degrees

--- Pseudopotential description ------------------------------------------------
- pspini: atom type   1  psp file is /home/gonze/ABINIT/ABINITv5.6.3/test_gcc43/5.6.3-private/tests/Psps_for_tests/HGH/14si.4.hgh
- pspatm: opening atomic psp file    /home/gonze/ABINIT/ABINITv5.6.3/test_gcc43/5.6.3-private/tests/Psps_for_tests/HGH/14si.4.hgh
 Hartwigsen-Goedecker-Hutter psp for Si,  from PRB58, 3641 (1998)
  14.00000   4.00000     10605                znucl, zion, pspdat
    3    1    1    0      2001   0.00000      pspcod,pspxc,lmax,lloc,mmax,r2well
 rloc=   0.4400000
 cc1 =  -7.3361030; cc2 =   0.0000000; cc3 =   0.0000000; cc4 =   0.0000000
 rrs =   0.4227380; h11s=   5.9069280; h22s=   3.2581960; h33s=   0.0000000
 rrp =   0.4842780; h11p=   2.7270130; h22p=   0.0000000; h33p=   0.0000000
                    k11p=   0.0003730; k22p=   0.0144370; k33p=   0.0000000
-
- psp3in : COMMENT -
-  the pseudo-potential does not include geometric informations,
-  values have been computed.
  radii_cf(1)=   1.8060253; radii_cf(2)=   0.4227380; rad_cov=   0.0000000
-  Local part computed in reciprocal space.

 pspatm : COMMENT -
  the projectors are not normalized,
  so that the KB energies are not consistent with
  definition in PRB44, 8503 (1991).
  However, this does not influence the results obtained hereafter.
 pspatm: epsatm=   -4.97652546
         --- l  ekb(1:nproj) -->
             0    0.737339    1.717128
             1    0.514986
 pspatm: atomic psp has been read  and splines computed

  -1.99061019E+01                                ecore*ucvol(ha*bohr**3)
--------------------------------------------------------------------------------


 setup2: nwvl coarse and fine are   33833    3431

================================================================================

     iter   Etot(hartree)      deltaE(h)  grdnorm    vres2
 ETOT  1  -3.7438736864543    -3.744E+00 6.759E-02 3.549E+00
 ETOT  2  -3.7453989840364    -1.525E-03 1.575E-02 5.903E-01
 ETOT  3  -3.7455755512308    -1.766E-04 4.504E-03 6.497E-02
 ETOT  4  -3.7455913595476    -1.581E-05 1.671E-03 4.856E-04
 ETOT  5  -3.7455925006179    -1.141E-06 2.550E-04 1.817E-05
 ETOT  6  -3.7455925942663    -9.365E-08 7.377E-05 2.443E-06

 At SCF step    6   max grdnorm=  7.38E-05 < tolwfr=  1.00E-04 =>converged.
================================================================================

 ----iterations are completed or convergence reached----

 Mean square residual over all n,k,spin=   0.0000E+00; max=  0.0000E+00
   0.0000  0.0000  0.0000    1  0.00000E+00 kpt; spin; max resid(k); each band:
 0.00E+00 0.00E+00 0.00E+00 0.00E+00
 reduced coordinates (array xred) for    1 atoms
       0.500000000000      0.500000000000      0.500000000000
 rms dE/dt=  0.0000E+00; max dE/dt=  0.0000E+00; dE/dt below (all hartree)
    1       0.000000000000      0.000000000000      0.000000000000

 cartesian coordinates (angstrom) at end:
    1      4.76259487731000     4.76259487731000     4.76259487731000
 length scales= 18.000000000000 18.000000000000 18.000000000000 bohr
              =  9.525189754620  9.525189754620  9.525189754620 angstroms
 Fermi (or HOMO) energy (hartree) =   0.00000   Average Vxc (hartree)=  -0.01250
 Eigenvalues (hartree) for nkpt=   1  k points:
 kpt#   1, nband=  4, wtk=  1.00000, kpt=  0.0000  0.0000  0.0000 (reduced coord)
  -0.39712  -0.15037  -0.15037  -0.15037
 Total charge density [el/Bohr^3]
,     Maximum=    5.6641E-02  at reduced coord.    0.4505    0.4685    0.4505
,Next maximum=    5.6641E-02  at reduced coord.    0.4505    0.4505    0.4685
,     Minimum=    1.0000E-20  at reduced coord.    0.0000    0.0000    0.0000
,Next minimum=    1.0000E-20  at reduced coord.    0.0090    0.0000    0.0000

--------------------------------------------------------------------------------
 Components of total free energy (in Hartree) :

    Kinetic energy  =  1.35474976419117E+00
    Hartree energy  =  2.94370676969124E+00
    XC energy       = -9.67720539738452E-01
    Ion-ion energy  =  0.00000000000000E+00
    PspCore energy  =  0.00000000000000E+00
    Loc. psp. energy= -9.16177215828709E+00
    NL   psp  energy=  8.24634515403292E-01
    XC pot. energy  = -1.26080904918003E+00
    >>>>>>>>> Etotal= -3.74559259955981E+00

 Other information on the energy :
    Total energy(eV)= -1.01922758009797E+02 ; Band energy (Ha)=   0.0000000000E+00
--------------------------------------------------------------------------------

== END DATASET(S) ==============================================================
================================================================================
  
 -outvars: echo values of variables after computation  --------
     acell    1.8000000000E+01  1.8000000000E+01  1.8000000000E+01 Bohr
       amu    2.80855000E+01
    etotal   -3.7455925996E+00
     fcart    9.9999999999E+99  9.9999999999E+99  9.9999999999E+99
  icoulomb         1
      iscf         2
    istwfk      2
P    mkmem         1
     natom         1
     nband         4
     ngfft         2       2       2
      nkpt         1
     nstep        20
      nsym         1
    ntypat         1
  nwfshist         6
       occ    2.000000  0.666667  0.666667  0.666667
    occopt         0
 optforces         0
 optstress         0
    prtden         0
    prteig         0
     prtwf         0
   spgroup         1
    strten    9.9999999999E+99  9.9999999999E+99  9.9999999999E+99
              9.9999999999E+99  9.9999999999E+99  9.9999999999E+99
    tolwfr    1.00000000E-04
     typat    1
    usewvl         1
 wvl_crmul    5.00000000E+00
 wvl_cpmul    1.20000000E+01
 wvl_hgrid    4.50000000E-01
    xangst    4.7625948773E+00  4.7625948773E+00  4.7625948773E+00
     xcart    9.0000000000E+00  9.0000000000E+00  9.0000000000E+00
      xred    5.0000000000E-01  5.0000000000E-01  5.0000000000E-01
     znucl     14.00000

================================================================================

- Total cpu        time (s,m,h):         21.1        0.35      0.006
- Total wall clock time (s,m,h):         21.1        0.35      0.006

- For major independent code sections, cpu and wall times (sec),
- as well as % of the total time and number of calls 

- routine                 cpu     %       wall     %      number of calls 
-                                                          (-1=no count)
- inwffil                5.225  24.8      5.225  24.8              1
- timing timab           0.356   1.7      0.357   1.7             11
- invars2                0.105   0.5      0.106   0.5              1
- 67   others            0.039   0.2      0.035   0.2

- subtotal               5.725  27.2      5.723  27.1

================================================================================

 Calculation completed.
.Delivered    1 WARNINGs and   4 COMMENTs to log file.
+Overall time at end (sec) : cpu=         21.1  wall=         21.1
