
.Version 5.6.3  of ABINIT 
.(sequential version, prepared for a x86_64_linux_gcc4.3 computer) 

.Copyright (C) 1998-2008 ABINIT group . 
 ABINIT comes with ABSOLUTELY NO WARRANTY.
 It is free software, and you are welcome to redistribute it
 under certain conditions (GNU General Public License,
 see ~abinit/COPYING or http://www.gnu.org/copyleft/gpl.txt).

 ABINIT is a project of the Universite Catholique de Louvain,
 Corning Inc. and other collaborators, see ~abinit/doc/developers/contributors.txt .
 Please read ~abinit/doc/users/acknowledgments.html for suggested
 acknowledgments of the ABINIT effort.
 For more information, see http://www.abinit.org .

.Starting date : Thu  6 Nov 2008.
  
- input  file    -> /home/gonze/ABINIT/ABINITv5.6.3/test_gcc43/5.6.3-private/tests/bigdft/Input/t22.in
- output file    -> t22.out
- root for input  files -> t22i
- root for output files -> t22o


 Symmetries : space group Pm m 2 (# 25); Bravais oP (primitive ortho.)
================================================================================
 Values of the parameters that define the memory need of the present run
   intxc =         0  ionmov =         0    iscf =         7 xclevel =         1
  lmnmax =         1   lnmax =         1   mband =        30  mffmem =         1
P  mgfft =        60   mkmem =         1 mpssoang=         2     mpw =     12053
  mqgrid =      3001   natom =         3    nfft =    216000    nkpt =         1
  nloalg =         4  nspden =         1 nspinor =         1  nsppol =         1
    nsym =         4  n1xccc =         0  ntypat =         2  occopt =         1
================================================================================
P This job should need less than                      69.503 Mbytes of memory.
  Rough estimation (10% accuracy) of disk space for files :
  WF disk file :      5.519 Mbytes ; DEN or POT disk file :      1.650 Mbytes.
================================================================================

 -outvars: echo values of preprocessed input variables --------
     acell    1.0000000000E+01  1.0000000000E+01  1.0000000000E+01 Bohr
       amu    1.00794000E+00  1.59994000E+01
      ecut    4.00000000E+01 Hartree
  icoulomb         1
    istwfk      1
   kptrlen    1.00000000E+01
    kptopt         1
  kptrlatt    1  0  0   0  1  0   0  0  1
P    mkmem         1
     natom         3
     nband        30
    nbdbuf         5
     ngfft        60      60      60
      nkpt         1
     nstep       100
      nsym         4
    ntypat         2
       occ    2.000000  2.000000  2.000000  2.000000  0.000000  0.000000
              0.000000  0.000000  0.000000  0.000000  0.000000  0.000000
              0.000000  0.000000  0.000000  0.000000  0.000000  0.000000
              0.000000  0.000000  0.000000  0.000000  0.000000  0.000000
              0.000000  0.000000  0.000000  0.000000  0.000000  0.000000
   spgroup        25
    symrel    1  0  0   0  1  0   0  0  1       1  0  0   0 -1  0   0  0  1
              1  0  0   0  1  0   0  0 -1       1  0  0   0 -1  0   0  0 -1
    tolrff    1.00000000E-03
     typat    1  1  2
    xangst    6.1014500000E-01  7.3017400000E-01  0.0000000000E+00
              6.1014500000E-01 -7.3017400000E-01  0.0000000000E+00
              0.0000000000E+00  0.0000000000E+00  0.0000000000E+00
     xcart    1.1530069513E+00  1.3798288894E+00  0.0000000000E+00
              1.1530069513E+00 -1.3798288894E+00  0.0000000000E+00
              0.0000000000E+00  0.0000000000E+00  0.0000000000E+00
      xred    1.1530069513E-01  1.3798288894E-01  0.0000000000E+00
              1.1530069513E-01 -1.3798288894E-01  0.0000000000E+00
              0.0000000000E+00  0.0000000000E+00  0.0000000000E+00
     znucl      1.00000    8.00000

================================================================================

 chkinp: Checking input parameters for consistency.

================================================================================
== DATASET  1 ==================================================================

 Real(R)+Recip(G) space primitive vectors, cartesian coordinates (Bohr,Bohr^-1):
 R(1)= 10.0000000  0.0000000  0.0000000  G(1)=  0.1000000  0.0000000  0.0000000
 R(2)=  0.0000000 10.0000000  0.0000000  G(2)=  0.0000000  0.1000000  0.0000000
 R(3)=  0.0000000  0.0000000 10.0000000  G(3)=  0.0000000  0.0000000  0.1000000
 Unit cell volume ucvol=  1.0000000E+03 bohr^3
 Angles (23,13,12)=  9.00000000E+01  9.00000000E+01  9.00000000E+01 degrees

 getcut: wavevector=  0.0000  0.0000  0.0000  ngfft=  60  60  60
         ecut(hartree)=     40.000   => boxcut(ratio)=   2.10744

--- Pseudopotential description ------------------------------------------------
- pspini: atom type   1  psp file is /home/gonze/ABINIT/ABINITv5.6.3/test_gcc43/5.6.3-private/tests/Psps_for_tests/HGH/1h.1.hgh
- pspatm: opening atomic psp file    /home/gonze/ABINIT/ABINITv5.6.3/test_gcc43/5.6.3-private/tests/Psps_for_tests/HGH/1h.1.hgh
 Hartwigsen-Goedecker-Hutter psp for H,  from PRB58, 3641 (1998)
   1.00000   1.00000     10605                znucl, zion, pspdat
    3    1    0    0      2001   0.00000      pspcod,pspxc,lmax,lloc,mmax,r2well
 rloc=   0.2000000
 cc1 =  -4.1802370; cc2 =   0.7250750; cc3 =   0.0000000; cc4 =   0.0000000
 rrs =   0.0000000; h11s=   0.0000000; h22s=   0.0000000; h33s=   0.0000000
-  Local part computed in reciprocal space.

 pspatm : COMMENT -
  the projectors are not normalized,
  so that the KB energies are not consistent with
  definition in PRB44, 8503 (1991).
  However, this does not influence the results obtained hereafter.
 pspatm: epsatm=   -0.00129784
         --- l  ekb(1:nproj) -->
 pspatm: atomic psp has been read  and splines computed

- pspini: atom type   2  psp file is /home/gonze/ABINIT/ABINITv5.6.3/test_gcc43/5.6.3-private/tests/Psps_for_tests/HGH/8o.6.hgh
- pspatm: opening atomic psp file    /home/gonze/ABINIT/ABINITv5.6.3/test_gcc43/5.6.3-private/tests/Psps_for_tests/HGH/8o.6.hgh
 Hartwigsen-Goedecker-Hutter psp for O,  from PRB58, 3641 (1998)
   8.00000   6.00000     10605                znucl, zion, pspdat
    3    1    1    0      2001   0.00000      pspcod,pspxc,lmax,lloc,mmax,r2well
 rloc=   0.2476210
 cc1 = -16.5803180; cc2 =   2.3957010; cc3 =   0.0000000; cc4 =   0.0000000
 rrs =   0.2217860; h11s=  18.2669170; h22s=   0.0000000; h33s=   0.0000000
 rrp =   0.2568290; h11p=   0.0000000; h22p=   0.0000000; h33p=   0.0000000
                    k11p=   0.0044760; k22p=   0.0000000; k33p=   0.0000000
-  Local part computed in reciprocal space.

 pspatm : COMMENT -
  the projectors are not normalized,
  so that the KB energies are not consistent with
  definition in PRB44, 8503 (1991).
  However, this does not influence the results obtained hereafter.
 pspatm: epsatm=    0.06537478
         --- l  ekb(1:nproj) -->
             0    0.706436
 pspatm: atomic psp has been read  and splines computed

   5.02232778E-01                                ecore*ucvol(ha*bohr**3)
--------------------------------------------------------------------------------

P newkpt: treating     30 bands with npw=   12053 for ikpt=   1

 setup2: Arith. and geom. avg. npw (full set) are   12053.000   12053.000

================================================================================

     iter   Etot(hartree)      deltaE(h)  residm     vres2    diffor    maxfor
 ETOT  1   10.325899615624     1.033E+01 7.764E-03 4.812E+03 1.535E+00 1.535E+00
 ETOT  2   10.431744581588     1.058E-01 1.248E-05 1.123E+03 1.801E-01 1.527E+00
 ETOT  3   10.491477047598     5.973E-02 1.921E-03 2.433E+02 6.605E-02 1.529E+00
 ETOT  4   10.527680929838     3.620E-02 3.344E-04 4.154E+01 3.337E-02 1.531E+00
 ETOT  5   10.548755857353     2.107E-02 1.082E-04 1.563E+00 1.673E-02 1.531E+00
 ETOT  6   10.555715258309     6.959E-03 4.693E-06 5.507E-02 2.823E-03 1.531E+00
 ETOT  7   10.557710430804     1.995E-03 1.297E-07 6.575E-03 4.827E-04 1.531E+00
 ETOT  8   10.558211692079     5.013E-04 1.239E-08 9.998E-04 1.164E-04 1.531E+00

 At SCF step    8, forces are sufficiently converged :
  for the second time, max diff in force=  1.164E-04 is less than < tolrff=  1.000E-03 times max force

 Cartesian components of stress tensor (hartree/bohr^3)
  sigma(1 1)= -8.20276524E-03  sigma(3 2)=  0.00000000E+00
  sigma(2 2)= -8.87610213E-03  sigma(3 1)=  0.00000000E+00
  sigma(3 3)= -6.08360315E-03  sigma(2 1)=  0.00000000E+00

================================================================================

 ----iterations are completed or convergence reached----

 Mean square residual over all n,k,spin=   7.2017E-09; max=  1.2390E-08
   0.0000  0.0000  0.0000    1  1.23905E-08 kpt; spin; max resid(k); each band:
 4.14E-09 9.26E-09 1.24E-08 8.11E-09 8.77E-09 6.45E-09 5.40E-09 6.77E-09
 6.89E-09 1.04E-08 1.04E-08 1.10E-08 6.83E-09 1.20E-08 7.45E-09 3.70E-09
 4.71E-09 2.70E-09 6.64E-09 8.06E-09 3.29E-09 6.09E-09 1.02E-08 5.51E-09
 4.60E-09 6.85E-09 8.63E-09 4.88E-09 5.59E-09 8.33E-09
 reduced coordinates (array xred) for    3 atoms
       0.115300695135      0.137982888935      0.000000000000
       0.115300695135     -0.137982888935      0.000000000000
       0.000000000000      0.000000000000      0.000000000000
 rms dE/dt=  1.2065E+01; max dE/dt=  1.5314E+01; dE/dt below (all hartree)
    1     -11.815196787362    -15.313617024581      0.000000000000
    2     -11.815196787362     15.313617024581      0.000000000000
    3     -23.704538746815      0.000000000000      0.000000000000

 cartesian coordinates (angstrom) at end:
    1      0.61014500000000     0.73017400000000     0.00000000000000
    2      0.61014500000000    -0.73017400000000     0.00000000000000
    3      0.00000000000000     0.00000000000000     0.00000000000000

 cartesian forces (hartree/bohr) at end:
    1     -0.39631139864843     1.53136170245810    -0.00000000000000
    2     -0.39631139864843    -1.53136170245810    -0.00000000000000
    3      0.79262279729687    -0.00000000000000    -0.00000000000000
 frms,max,avg= 7.9109725E-01 1.5313617E+00   1.578E+00  0.000E+00  0.000E+00 h/b

 cartesian forces (eV/Angstrom) at end:
    1    -20.37914978509862    78.74577823395312    -0.00000000000000
    2    -20.37914978509862   -78.74577823395312    -0.00000000000000
    3     40.75829957019726    -0.00000000000000    -0.00000000000000
 frms,max,avg= 4.0679853E+01 7.8745778E+01   8.114E+01  0.000E+00  0.000E+00 e/A
 length scales= 10.000000000000 10.000000000000 10.000000000000 bohr
              =  5.291772085900  5.291772085900  5.291772085900 angstroms
 prteigrs : about to open file t22o_EIG
 Fermi (or HOMO) energy (hartree) =   0.95800   Average Vxc (hartree)=  -0.21567
 Eigenvalues (hartree) for nkpt=   1  k points:
 kpt#   1, nband= 30, wtk=  1.00000, kpt=  0.0000  0.0000  0.0000 (reduced coord)
   0.43334   0.86021   0.95163   0.95800   0.97461   1.02926   1.03957   1.13922
   1.17351   1.18589   1.19988   1.20821   1.21117   1.22718   1.24574   1.24736
   1.25388   1.27355   1.28365   1.39066   1.43218   1.43544   1.44428   1.45451
   1.46640   1.47072   1.47394   1.50425   1.52284   1.53827
 Total charge density [el/Bohr^3]
,     Maximum=    1.5608E-01  at reduced coord.    0.1000    0.8833    0.0000
,Next maximum=    1.5608E-01  at reduced coord.    0.1000    0.1167    0.0000
,     Minimum=    1.6629E-04  at reduced coord.    0.0000    0.0000    0.0000
,Next minimum=    4.3577E-04  at reduced coord.    0.5333    0.5000    0.5000

--------------------------------------------------------------------------------
 Components of total free energy (in Hartree) :

    Kinetic energy  =  2.94369619587328E+00
    Hartree energy  =  5.45078493948789E+00
    XC energy       = -1.81146051451533E+00
    Ion-ion energy  =  7.03587966819977E+00
    PspCore energy  =  0.00000000000000E+00
    Loc. psp. energy= -3.13429661565685E+00
    NL   psp  energy=  7.36080186902960E-02
    >>>>>>>>> Etotal=  1.05582116920791E+01

 Other information on the energy :
    Total energy(eV)=  2.87303551228303E+02 ; Band energy (Ha)=   6.4063440386E+00
--------------------------------------------------------------------------------

 Cartesian components of stress tensor (hartree/bohr^3)
  sigma(1 1)= -8.20276524E-03  sigma(3 2)=  0.00000000E+00
  sigma(2 2)= -8.87610213E-03  sigma(3 1)=  0.00000000E+00
  sigma(3 3)= -6.08360315E-03  sigma(2 1)=  0.00000000E+00

-Cartesian components of stress tensor (GPa)         [Pressure=  2.2715E+02 GPa]
- sigma(1 1)= -2.41333645E+02  sigma(3 2)=  0.00000000E+00
- sigma(2 2)= -2.61143897E+02  sigma(3 1)=  0.00000000E+00
- sigma(3 3)= -1.78985754E+02  sigma(2 1)=  0.00000000E+00

== END DATASET(S) ==============================================================
================================================================================
  
 -outvars: echo values of variables after computation  --------
     acell    1.0000000000E+01  1.0000000000E+01  1.0000000000E+01 Bohr
       amu    1.00794000E+00  1.59994000E+01
      ecut    4.00000000E+01 Hartree
    etotal    1.0558211692E+01
     fcart   -3.9631139865E-01  1.5313617025E+00 -0.0000000000E+00
             -3.9631139865E-01 -1.5313617025E+00 -0.0000000000E+00
              7.9262279730E-01 -0.0000000000E+00 -0.0000000000E+00
  icoulomb         1
    istwfk      1
   kptrlen    1.00000000E+01
    kptopt         1
  kptrlatt    1  0  0   0  1  0   0  0  1
P    mkmem         1
     natom         3
     nband        30
    nbdbuf         5
     ngfft        60      60      60
      nkpt         1
     nstep       100
      nsym         4
    ntypat         2
       occ    2.000000  2.000000  2.000000  2.000000  0.000000  0.000000
              0.000000  0.000000  0.000000  0.000000  0.000000  0.000000
              0.000000  0.000000  0.000000  0.000000  0.000000  0.000000
              0.000000  0.000000  0.000000  0.000000  0.000000  0.000000
              0.000000  0.000000  0.000000  0.000000  0.000000  0.000000
   spgroup        25
    strten   -8.2027652420E-03 -8.8761021324E-03 -6.0836031456E-03
              0.0000000000E+00  0.0000000000E+00  0.0000000000E+00
    symrel    1  0  0   0  1  0   0  0  1       1  0  0   0 -1  0   0  0  1
              1  0  0   0  1  0   0  0 -1       1  0  0   0 -1  0   0  0 -1
    tolrff    1.00000000E-03
     typat    1  1  2
    xangst    6.1014500000E-01  7.3017400000E-01  0.0000000000E+00
              6.1014500000E-01 -7.3017400000E-01  0.0000000000E+00
              0.0000000000E+00  0.0000000000E+00  0.0000000000E+00
     xcart    1.1530069513E+00  1.3798288894E+00  0.0000000000E+00
              1.1530069513E+00 -1.3798288894E+00  0.0000000000E+00
              0.0000000000E+00  0.0000000000E+00  0.0000000000E+00
      xred    1.1530069513E-01  1.3798288894E-01  0.0000000000E+00
              1.1530069513E-01 -1.3798288894E-01  0.0000000000E+00
              0.0000000000E+00  0.0000000000E+00  0.0000000000E+00
     znucl      1.00000    8.00000

================================================================================

- Total cpu        time (s,m,h):         42.1        0.70      0.012
- Total wall clock time (s,m,h):         42.2        0.70      0.012

- For major independent code sections, cpu and wall times (sec),
- as well as % of the total time and number of calls 

- routine                 cpu     %       wall     %      number of calls 
-                                                          (-1=no count)
- fourwf(pot)           22.329  53.0     22.306  52.9           1469
- projbd                 9.355  22.2      9.361  22.2           2338
- vtowfk(ssdiag)         1.822   4.3      1.821   4.3             -1
- forces                 0.872   2.1      0.871   2.1              8
- nonlop(apply)          0.641   1.5      0.663   1.6           1469
- timing timab           0.493   1.2      0.493   1.2             12
- symrhg(no FFT)         0.387   0.9      0.387   0.9              8
- fourdp                 0.311   0.7      0.310   0.7             31
- invars2                0.288   0.7      0.289   0.7              1
- fourwf(den)            0.267   0.6      0.272   0.6             32
- inwffil                0.244   0.6      0.244   0.6              1
- getghc-other           0.202   0.5      0.227   0.5             -1
- 58   others            0.430   1.0      0.420   1.0

- subtotal              37.641  89.3     37.664  89.4

================================================================================

 Calculation completed.
.Delivered    0 WARNINGs and   3 COMMENTs to log file.
+Overall time at end (sec) : cpu=         42.2  wall=         42.2
