
.Version 5.6.3  of ABINIT 
.(sequential version, prepared for a x86_64_linux_gcc4.3 computer) 

.Copyright (C) 1998-2008 ABINIT group . 
 ABINIT comes with ABSOLUTELY NO WARRANTY.
 It is free software, and you are welcome to redistribute it
 under certain conditions (GNU General Public License,
 see ~abinit/COPYING or http://www.gnu.org/copyleft/gpl.txt).

 ABINIT is a project of the Universite Catholique de Louvain,
 Corning Inc. and other collaborators, see ~abinit/doc/developers/contributors.txt .
 Please read ~abinit/doc/users/acknowledgments.html for suggested
 acknowledgments of the ABINIT effort.
 For more information, see http://www.abinit.org .

.Starting date : Thu  6 Nov 2008.
  
- input  file    -> /home/gonze/ABINIT/ABINITv5.6.3/test_gcc43/5.6.3-private/tests/v4/Input/t04.in
- output file    -> t04.out
- root for input  files -> t04i
- root for output files -> t04o


 Symmetries : space group P1 (#  1); Bravais aP (primitive triclinic)
================================================================================
 Values of the parameters that define the memory need of the present run
   intxc =         0  ionmov =         0    iscf =        14 xclevel =         1
  lmnmax =        13   lnmax =         5   mband =         6  mffmem =         1
P  mgfft =        10   mkmem =         1 mpssoang=         3     mpw =        29
  mqgrid =      3001   natom =         1    nfft =       640    nkpt =         1
  nloalg =         4  nspden =         1 nspinor =         1  nsppol =         1
    nsym =         1  n1xccc =         1  ntypat =         1  occopt =         7
 PAW method is used; the additional fine FFT grid is defined by:
   mgfftf=        20    nfftf =      5760
================================================================================
P This job should need less than                       3.713 Mbytes of memory.
  Rough estimation (10% accuracy) of disk space for files :
  WF disk file :      0.005 Mbytes ; DEN or POT disk file :      0.046 Mbytes.
================================================================================

 -outvars: echo values of preprocessed input variables --------
     acell    3.0000000000E+00  3.5000000000E+00  4.0000000000E+00 Bohr
       amu    4.00780000E+01
      ecut    3.00000000E+00 Hartree
    enunit         2
      iscf        14
    istwfk      1
       ixc         7
P    mkmem         1
     natom         1
     nband         6
     ngfft         8       8      10
   ngfftdg        16      18      20
      nkpt         1
     nline         5
     nstep        25
      nsym         1
     ntime         5
    ntypat         1
       occ    2.000000  2.000000  2.000000  2.000000  2.000000  0.000000
    occopt         7
    ortalg         1
 pawecutdg    1.50000000E+01 Hartree
  pawmixdg         1
 pawoptmix         1
     prtwf         0
     rprim    1.4000000000E+00  0.0000000000E+00  0.0000000000E+00
              0.0000000000E+00  1.4000000000E+00  0.0000000000E+00
              0.0000000000E+00  0.0000000000E+00  1.4000000000E+00
   spgroup         1
    toldfe    1.00000000E-08 Hartree
    tsmear    2.00000000E-02 Hartree
     typat    1
    useylm         1
     znucl     20.00000

================================================================================

 chkinp: Checking input parameters for consistency.

================================================================================
== DATASET  1 ==================================================================

 Real(R)+Recip(G) space primitive vectors, cartesian coordinates (Bohr,Bohr^-1):
 R(1)=  4.2000000  0.0000000  0.0000000  G(1)=  0.2380952  0.0000000  0.0000000
 R(2)=  0.0000000  4.9000000  0.0000000  G(2)=  0.0000000  0.2040816  0.0000000
 R(3)=  0.0000000  0.0000000  5.6000000  G(3)=  0.0000000  0.0000000  0.1785714
 Unit cell volume ucvol=  1.1524800E+02 bohr^3
 Angles (23,13,12)=  9.00000000E+01  9.00000000E+01  9.00000000E+01 degrees

 Coarse grid specifications (used for wave-functions):

 getcut: wavevector=  0.0000  0.0000  0.0000  ngfft=   8   8  10
         ecut(hartree)=      3.000   => boxcut(ratio)=   2.09396

 Fine grid specifications (used for densities):

 getcut: wavevector=  0.0000  0.0000  0.0000  ngfft=  16  18  20
         ecut(hartree)=     15.000   => boxcut(ratio)=   2.04848

--- Pseudopotential description ------------------------------------------------
- pspini: atom type   1  psp file is /home/gonze/ABINIT/ABINITv5.6.3/test_gcc43/5.6.3-private/tests/Psps_for_tests/20ca.paw
- pspatm: opening atomic psp file    /home/gonze/ABINIT/ABINITv5.6.3/test_gcc43/5.6.3-private/tests/Psps_for_tests/20ca.paw
 Paw atomic data for element Ca - Generated by AtomPAW (N. Holzwarth)
  20.00000  10.00000  20040423                znucl, zion, pspdat
    7    7    2    0       350   0.00000      pspcod,pspxc,lmax,lloc,mmax,r2well
 Pseudopotential format is: paw2
 basis_size (lnmax)=  5 (lmn_size= 13), orbitals=   0   0   1   1   2
 Spheres core radius: rc_sph= 1.91000000
 2 radial meshes are used:
  - mesh 1: r(i)=AA*exp(BB*(i-2)), size= 350 , AA= 0.98023E-05 BB= 0.35000E-01
  - mesh 2: r(i)=step*(i-1), size= 766 , step= 0.25000E-02
 Shapefunction is SIN type: shapef(r)=[sin(pi*r/rshp)/(pi*r/rshp)]**2
 Radius for shape functions = sphere core radius
 Radial grid used for partial waves is grid 1
 Radial grid used for projectors is grid 2
 Radial grid used for (t)core density is grid 1
 Radial grid used for Vloc is grid 1
 pspatm: atomic psp has been read  and splines computed

   2.49056342E+02                                ecore*ucvol(ha*bohr**3)
--------------------------------------------------------------------------------

P newkpt: treating      6 bands with npw=      29 for ikpt=   1

 setup2: Arith. and geom. avg. npw (full set) are      29.000      29.000

================================================================================

     iter   Etot(hartree)      deltaE(h)  residm     nres2    diffor    maxfor
 ETOT  1  -33.301080412830    -3.330E+01 2.655E-01 6.159E+00 0.000E+00 0.000E+00
 ETOT  2  -33.336814037325    -3.573E-02 4.672E-07 1.027E+00 0.000E+00 0.000E+00
 ETOT  3  -33.308684647889     2.813E-02 3.381E-04 4.999E-02 0.000E+00 0.000E+00
 ETOT  4  -33.308051676425     6.330E-04 1.847E-05 9.709E-03 0.000E+00 0.000E+00
 ETOT  5  -33.307829369248     2.223E-04 5.837E-06 2.140E-04 0.000E+00 0.000E+00
 ETOT  6  -33.307826196336     3.173E-06 1.481E-07 1.555E-05 0.000E+00 0.000E+00
 ETOT  7  -33.307825915893     2.804E-07 3.831E-10 9.142E-08 0.000E+00 0.000E+00
 ETOT  8  -33.307825915840     5.360E-11 8.123E-12 1.694E-08 0.000E+00 0.000E+00
 ETOT  9  -33.307825915795     4.469E-11 2.178E-12 1.911E-10 0.000E+00 0.000E+00

 At SCF step    9, etot is converged :
  for the second time, diff in etot=  4.469E-11 < toldfe=  1.000E-08

 Cartesian components of stress tensor (hartree/bohr^3)
  sigma(1 1)=  1.35699400E-02  sigma(3 2)= -1.73031346E-12
  sigma(2 2)=  3.38221086E-02  sigma(3 1)=  6.27026846E-12
  sigma(3 3)=  3.79912626E-02  sigma(2 1)= -1.94516562E-12


 PAW TEST:
 ==== Compensation charge inside spheres ============
 The following values must be close to each other ...
 Compensation charge over spherical meshes =     -0.543953745357729
 Compensation charge over fine fft grid    =     -0.543983242020573

 ==== Results concerning PAW augmentation regions ====

 Total pseudopotential strength Dij (hartree):
   0.73710  -0.02778  -0.00000  -0.00000   0.00000   0.00000   0.00000  -0.00000   0.00000   0.00000   0.00009   0.00000 ...
  -0.02778   0.02845   0.00000  -0.00000   0.00000   0.00000  -0.00000   0.00000   0.00000   0.00000  -0.00004   0.00000 ...
  -0.00000   0.00000  -0.73769   0.00000   0.00000  -0.00061   0.00000   0.00000  -0.00000   0.00000  -0.00000   0.00000 ...
  -0.00000  -0.00000   0.00000  -0.73790   0.00000   0.00000  -0.00065   0.00000   0.00000   0.00000   0.00000  -0.00000 ...
   0.00000   0.00000   0.00000   0.00000  -0.73741   0.00000   0.00000  -0.00192   0.00000   0.00000   0.00000   0.00000 ...
   0.00000   0.00000  -0.00061   0.00000   0.00000  -0.75120   0.00000   0.00000   0.00000   0.00000  -0.00000   0.00000 ...
   0.00000  -0.00000   0.00000  -0.00065   0.00000   0.00000  -0.75141   0.00000   0.00000   0.00000   0.00000   0.00000 ...
  -0.00000   0.00000   0.00000   0.00000  -0.00192   0.00000   0.00000  -0.75157   0.00000   0.00000   0.00000   0.00000 ...
   0.00000   0.00000  -0.00000   0.00000   0.00000   0.00000   0.00000   0.00000  -0.41234   0.00000   0.00000   0.00000 ...
   0.00000   0.00000   0.00000   0.00000   0.00000   0.00000   0.00000   0.00000   0.00000  -0.41140   0.00000   0.00000 ...
   0.00009  -0.00004  -0.00000   0.00000   0.00000  -0.00000   0.00000   0.00000   0.00000   0.00000  -0.41191   0.00000 ...
   0.00000   0.00000   0.00000  -0.00000   0.00000   0.00000   0.00000   0.00000   0.00000   0.00000   0.00000  -0.41240 ...
   ...  only 12  components have been written...

 Total pseudopotential strength Dij (eV):
  20.05755  -0.75592  -0.00000  -0.00000   0.00000   0.00000   0.00000  -0.00000   0.00000   0.00000   0.00236   0.00000 ...
  -0.75592   0.77410   0.00000  -0.00000   0.00000   0.00000  -0.00000   0.00000   0.00000   0.00000  -0.00112   0.00000 ...
  -0.00000   0.00000 -20.07362   0.00000   0.00000  -0.01658   0.00000   0.00000  -0.00000   0.00000  -0.00000   0.00000 ...
  -0.00000  -0.00000   0.00000 -20.07926   0.00000   0.00000  -0.01762   0.00000   0.00000   0.00000   0.00000  -0.00000 ...
   0.00000   0.00000   0.00000   0.00000 -20.06588   0.00000   0.00000  -0.05238   0.00000   0.00000   0.00000   0.00000 ...
   0.00000   0.00000  -0.01658   0.00000   0.00000 -20.44111   0.00000   0.00000   0.00000   0.00000  -0.00000   0.00000 ...
   0.00000  -0.00000   0.00000  -0.01762   0.00000   0.00000 -20.44680   0.00000   0.00000   0.00000   0.00000   0.00000 ...
  -0.00000   0.00000   0.00000   0.00000  -0.05238   0.00000   0.00000 -20.45126   0.00000   0.00000   0.00000   0.00000 ...
   0.00000   0.00000  -0.00000   0.00000   0.00000   0.00000   0.00000   0.00000 -11.22040   0.00000   0.00000   0.00000 ...
   0.00000   0.00000   0.00000   0.00000   0.00000   0.00000   0.00000   0.00000   0.00000 -11.19473   0.00000   0.00000 ...
   0.00236  -0.00112  -0.00000   0.00000   0.00000  -0.00000   0.00000   0.00000   0.00000   0.00000 -11.20865   0.00000 ...
   0.00000   0.00000   0.00000  -0.00000   0.00000   0.00000   0.00000   0.00000   0.00000   0.00000   0.00000 -11.22204 ...
   ...  only 12  components have been written...

 Augmentation waves occupancies Rhoij:
   1.64016   0.48804  -0.00000  -0.00000  -0.00000   0.00000   0.00000  -0.00000   0.00000   0.00000   0.06465   0.00000 ...
   0.48804   0.37098  -0.00000  -0.00000   0.00000  -0.00000  -0.00000   0.00000   0.00000   0.00000  -0.01283   0.00000 ...
  -0.00000  -0.00000   0.74660   0.00000   0.00000   0.24069   0.00000   0.00000   0.00000  -0.00000  -0.00000   0.00000 ...
  -0.00000  -0.00000   0.00000   0.69395   0.00000   0.00000   0.22423   0.00000   0.00000  -0.00000  -0.00000   0.00000 ...
  -0.00000   0.00000   0.00000   0.00000   1.05954   0.00000   0.00000   0.28782  -0.00000   0.00000  -0.00000  -0.00000 ...
   0.00000  -0.00000   0.24069   0.00000   0.00000   0.07759   0.00000   0.00000   0.00000  -0.00000   0.00000   0.00000 ...
   0.00000  -0.00000   0.00000   0.22423   0.00000   0.00000   0.07246   0.00000   0.00000  -0.00000  -0.00000   0.00000 ...
  -0.00000   0.00000   0.00000   0.00000   0.28782   0.00000   0.00000   0.07818  -0.00000   0.00000  -0.00000  -0.00000 ...
   0.00000   0.00000   0.00000   0.00000  -0.00000   0.00000   0.00000  -0.00000   0.00000   0.00000   0.00000   0.00000 ...
   0.00000   0.00000  -0.00000  -0.00000   0.00000  -0.00000  -0.00000   0.00000   0.00000   0.00000   0.00000   0.00000 ...
   0.06465  -0.01283  -0.00000  -0.00000  -0.00000   0.00000  -0.00000  -0.00000   0.00000   0.00000   0.00710   0.00000 ...
   0.00000   0.00000   0.00000   0.00000  -0.00000   0.00000   0.00000  -0.00000   0.00000   0.00000   0.00000   0.00000 ...
   ...  only 12  components have been written...


================================================================================

 ----iterations are completed or convergence reached----

 Mean square residual over all n,k,spin=   7.0245E-13; max=  2.1780E-12
   0.0000  0.0000  0.0000    1  2.17797E-12 kpt; spin; max resid(k); each band:
 2.18E-12 4.18E-15 3.37E-15 6.35E-15 1.74E-12 2.80E-13
 reduced coordinates (array xred) for    1 atoms
       0.000000000000      0.000000000000      0.000000000000
 rms dE/dt=  4.9031E-08; max dE/dt=  5.8578E-08; dE/dt below (all hartree)
    1      -0.000000037083      0.000000049047      0.000000058578

 cartesian coordinates (angstrom) at end:
    1      0.00000000000000     0.00000000000000     0.00000000000000

 cartesian forces (hartree/bohr) at end:
    1      0.00000000000000     0.00000000000000     0.00000000000000
 frms,max,avg= 0.0000000E+00 0.0000000E+00   8.829E-09 -1.001E-08 -1.046E-08 h/b

 cartesian forces (eV/Angstrom) at end:
    1      0.00000000000000     0.00000000000000     0.00000000000000
 frms,max,avg= 0.0000000E+00 0.0000000E+00   4.540E-07 -5.147E-07 -5.379E-07 e/A
 length scales=  3.000000000000  3.500000000000  4.000000000000 bohr
              =  1.587531625770  1.852120230065  2.116708834360 angstroms
 prteigrs : about to open file t04o_EIG
 Fermi (or HOMO) energy (hartree) =   0.28362   Average Vxc (hartree)=  -0.44860
 Eigenvalues (hartree) for nkpt=   1  k points:
 kpt#   1, nband=  6, wtk=  1.00000, kpt=  0.0000  0.0000  0.0000 (reduced coord)
  -1.56319  -0.41306  -0.37852  -0.33004   0.20460   0.36263
      occupation numbers for kpt#   1
   2.00000   2.00000   2.00000   2.00000   2.00000   0.00000
 Fermi (or HOMO) energy (eV) =   7.71758   Average Vxc (eV)= -12.20713
 Eigenvalues (   eV  ) for nkpt=   1  k points:
 kpt#   1, nband=  6, wtk=  1.00000, kpt=  0.0000  0.0000  0.0000 (reduced coord)
 -42.53668 -11.23990 -10.29997  -8.98097   5.56748   9.86769
 Total charge density [el/Bohr^3]
,     Maximum=    4.1492E-01  at reduced coord.    0.8750    0.0000    0.0000
,Next maximum=    4.1492E-01  at reduced coord.    0.1250    0.0000    0.0000
,     Minimum=    1.7213E-02  at reduced coord.    0.0000    0.5000    0.5000
,Next minimum=    1.7299E-02  at reduced coord.    0.0625    0.5000    0.5000

--------------------------------------------------------------------------------
 Components of total free energy (in Hartree) :

    Kinetic energy  =  1.09058154901562E+01
    Hartree energy  =  3.53904929001797E+00
    XC energy       = -4.54684318316464E+00
    Ewald energy    = -2.85262776194305E+01
    PspCore energy  =  2.16104697573995E+00
    Loc. psp. energy= -1.46370655423058E+01
    Spherical terms = -2.20355217900276E+00
    >>>>> Internal E= -3.33078267679896E+01

    -kT*entropy     = -3.75709522769071E-09
    >>>>>>>>> Etotal= -3.33078267717467E+01

 "Double-counting" decomposition of free energy:
    Band energy     = -4.96042696441696E+00
    Ewald energy    = -2.85262776194305E+01
    PspCore energy  =  2.16104697573995E+00
    Dble-C XC-energy= -2.13653865251659E+00
    Spherical terms =  1.54370348586365E-01
    >>>>> Internal E= -3.33078259120377E+01

    -kT*entropy     = -3.75709522769071E-09
    >>>> Etotal (DC)= -3.33078259157948E+01

  >Total energy in eV           = -9.06352059828385E+02
  >Total DC energy in eV        = -9.06352036536750E+02
--------------------------------------------------------------------------------

 Cartesian components of stress tensor (hartree/bohr^3)
  sigma(1 1)=  1.35699400E-02  sigma(3 2)= -1.73031346E-12
  sigma(2 2)=  3.38221086E-02  sigma(3 1)=  6.27026846E-12
  sigma(3 3)=  3.79912626E-02  sigma(2 1)= -1.94516562E-12

-Cartesian components of stress tensor (GPa)         [Pressure= -8.3735E+02 GPa]
- sigma(1 1)=  3.99241352E+02  sigma(3 2)= -5.09075709E-08
- sigma(2 2)=  9.95080623E+02  sigma(3 1)=  1.84477636E-07
- sigma(3 3)=  1.11774135E+03  sigma(2 1)= -5.72287388E-08

== END DATASET(S) ==============================================================
================================================================================
  
 -outvars: echo values of variables after computation  --------
     acell    3.0000000000E+00  3.5000000000E+00  4.0000000000E+00 Bohr
       amu    4.00780000E+01
      ecut    3.00000000E+00 Hartree
    enunit         2
    etotal   -3.3307825916E+01
     fcart    0.0000000000E+00  0.0000000000E+00  0.0000000000E+00
      iscf        14
    istwfk      1
       ixc         7
P    mkmem         1
     natom         1
     nband         6
     ngfft         8       8      10
   ngfftdg        16      18      20
      nkpt         1
     nline         5
     nstep        25
      nsym         1
     ntime         5
    ntypat         1
       occ    2.000000  2.000000  2.000000  2.000000  2.000000  0.000000
    occopt         7
    ortalg         1
 pawecutdg    1.50000000E+01 Hartree
  pawmixdg         1
 pawoptmix         1
     prtwf         0
     rprim    1.4000000000E+00  0.0000000000E+00  0.0000000000E+00
              0.0000000000E+00  1.4000000000E+00  0.0000000000E+00
              0.0000000000E+00  0.0000000000E+00  1.4000000000E+00
   spgroup         1
    strten    1.3569940015E-02  3.3822108610E-02  3.7991262607E-02
             -1.7303134564E-12  6.2702684620E-12 -1.9451656230E-12
    toldfe    1.00000000E-08 Hartree
    tsmear    2.00000000E-02 Hartree
     typat    1
    useylm         1
     znucl     20.00000

================================================================================

- Total cpu        time (s,m,h):          1.7        0.03      0.000
- Total wall clock time (s,m,h):          1.7        0.03      0.000

- For major independent code sections, cpu and wall times (sec),
- as well as % of the total time and number of calls 

- routine                 cpu     %       wall     %      number of calls 
-                                                          (-1=no count)
- pspini                 0.928  53.7      0.928  53.7              1
- timing timab           0.344  19.9      0.344  19.9             11
- invars2                0.105   6.1      0.105   6.1              1
- forces                 0.067   3.9      0.070   4.0              9
- pawinit                0.040   2.3      0.038   2.2              2
- abinit(2)              0.030   1.7      0.031   1.8              1
- fourdp                 0.017   1.0      0.015   0.9            109
- vtorho(4)-mkrho-       0.017   1.0      0.017   1.0             27
- vtorho:mknhat          0.016   0.9      0.013   0.8              9
- xc:pot/=fourdp         0.014   0.8      0.021   1.2             37
- pawdij                 0.013   0.8      0.010   0.6              9
- pawdenpot              0.011   0.6      0.011   0.6              9
- fourwf(pot)            0.009   0.5      0.009   0.5            291
- 57   others            0.045   2.6      0.059   3.4

- subtotal               1.656  95.8      1.671  96.6

================================================================================

 Calculation completed.
.Delivered    0 WARNINGs and   1 COMMENTs to log file.
+Overall time at end (sec) : cpu=          1.7  wall=          1.7
