
.Version 5.6.3  of ABINIT 
.(sequential version, prepared for a x86_64_linux_gcc4.3 computer) 

.Copyright (C) 1998-2008 ABINIT group . 
 ABINIT comes with ABSOLUTELY NO WARRANTY.
 It is free software, and you are welcome to redistribute it
 under certain conditions (GNU General Public License,
 see ~abinit/COPYING or http://www.gnu.org/copyleft/gpl.txt).

 ABINIT is a project of the Universite Catholique de Louvain,
 Corning Inc. and other collaborators, see ~abinit/doc/developers/contributors.txt .
 Please read ~abinit/doc/users/acknowledgments.html for suggested
 acknowledgments of the ABINIT effort.
 For more information, see http://www.abinit.org .

.Starting date : Thu  6 Nov 2008.
  
- input  file    -> /home/gonze/ABINIT/ABINITv5.6.3/test_gcc43/5.6.3-private/tests/v4/Input/t40.in
- output file    -> t40.out
- root for input  files -> t40i
- root for output files -> t40o


 Symmetries : space group P1 (#  1); Bravais aP (primitive triclinic)
================================================================================
 Values of the parameters that define the memory need of the present run
   intxc =         0  ionmov =         0    iscf =         3 xclevel =         1
  lmnmax =         2   lnmax =         2   mband =        16  mffmem =         1
P  mgfft =        16   mkmem =         4 mpssoang=         3     mpw =       272
  mqgrid =      3001   natom =         8    nfft =      4096    nkpt =         4
  nloalg =         4  nspden =         1 nspinor =         1  nsppol =         1
    nsym =         1  n1xccc =      2501  ntypat =         1  occopt =         0
================================================================================
P This job should need less than                       1.646 Mbytes of memory.
  Rough estimation (10% accuracy) of disk space for files :
  WF disk file :      0.268 Mbytes ; DEN or POT disk file :      0.033 Mbytes.
================================================================================

 -outvars: echo values of preprocessed input variables --------
     acell    1.0263110000E+01  1.0263110000E+01  1.0263110000E+01 Bohr
       amu    2.80855000E+01
    diemac    1.20000000E+01
      ecut    2.99000000E+00 Hartree
    enunit         2
      iscf         3
       kpt    1.00000000E+00  1.00000000E+00  1.00000000E+00
             -1.00000000E+00  1.00000000E+00  1.00000000E+00
              1.00000000E+00 -1.00000000E+00  1.00000000E+00
              1.00000000E+00  1.00000000E+00 -1.00000000E+00
    kptnrm    4.00000000E+00
P    mkmem         4
     natom         8
     nband        16
     ngfft        16      16      16
      nkpt         4
     nstep        15
      nsym         1
     ntime         6
    ntypat         1
       occ    2.000000  2.000000  2.000000  2.000000  2.000000  2.000000
              2.000000  2.000000  2.000000  2.000000  2.000000  2.000000
              2.000000  2.000000  2.000000  2.000000
    occopt         0
   spgroup         1
    tolwfr    1.00000000E-14
     typat    1  1  1  1  1  1  1  1
       wtk      0.25000    0.25000    0.25000    0.25000
    xangst    5.4310039013E-03  0.0000000000E+00  0.0000000000E+00
              1.3577509753E+00  1.3577509753E+00  1.3577509753E+00
              0.0000000000E+00  2.7155019506E+00  2.7155019506E+00
              1.3577509753E+00  4.0732529259E+00  4.0732529259E+00
              2.7155019506E+00  0.0000000000E+00  2.7155019506E+00
              4.0732529259E+00  1.3577509753E+00  4.0732529259E+00
              2.7155019506E+00  2.7155019506E+00  0.0000000000E+00
              4.0732529259E+00  4.0732529259E+00  1.3577509753E+00
     xcart    1.0263110000E-02  0.0000000000E+00  0.0000000000E+00
              2.5657775000E+00  2.5657775000E+00  2.5657775000E+00
              0.0000000000E+00  5.1315550000E+00  5.1315550000E+00
              2.5657775000E+00  7.6973325000E+00  7.6973325000E+00
              5.1315550000E+00  0.0000000000E+00  5.1315550000E+00
              7.6973325000E+00  2.5657775000E+00  7.6973325000E+00
              5.1315550000E+00  5.1315550000E+00  0.0000000000E+00
              7.6973325000E+00  7.6973325000E+00  2.5657775000E+00
      xred    1.0000000000E-03  0.0000000000E+00  0.0000000000E+00
              2.5000000000E-01  2.5000000000E-01  2.5000000000E-01
              0.0000000000E+00  5.0000000000E-01  5.0000000000E-01
              2.5000000000E-01  7.5000000000E-01  7.5000000000E-01
              5.0000000000E-01  0.0000000000E+00  5.0000000000E-01
              7.5000000000E-01  2.5000000000E-01  7.5000000000E-01
              5.0000000000E-01  5.0000000000E-01  0.0000000000E+00
              7.5000000000E-01  7.5000000000E-01  2.5000000000E-01
     znucl     14.00000

================================================================================

 chkinp: Checking input parameters for consistency.

================================================================================
== DATASET  1 ==================================================================

 Real(R)+Recip(G) space primitive vectors, cartesian coordinates (Bohr,Bohr^-1):
 R(1)= 10.2631100  0.0000000  0.0000000  G(1)=  0.0974364  0.0000000  0.0000000
 R(2)=  0.0000000 10.2631100  0.0000000  G(2)=  0.0000000  0.0974364  0.0000000
 R(3)=  0.0000000  0.0000000 10.2631100  G(3)=  0.0000000  0.0000000  0.0974364
 Unit cell volume ucvol=  1.0810280E+03 bohr^3
 Angles (23,13,12)=  9.00000000E+01  9.00000000E+01  9.00000000E+01 degrees

 getcut: wavevector=  0.0000  0.0000  0.0000  ngfft=  16  16  16
         ecut(hartree)=      2.990   => boxcut(ratio)=   2.00281

--- Pseudopotential description ------------------------------------------------
- pspini: atom type   1  psp file is /home/gonze/ABINIT/ABINITv5.6.3/test_gcc43/5.6.3-private/tests/Psps_for_tests/14si.pspnc
- pspatm: opening atomic psp file    /home/gonze/ABINIT/ABINITv5.6.3/test_gcc43/5.6.3-private/tests/Psps_for_tests/14si.pspnc
  Troullier-Martins psp for element  Si        Thu Oct 27 17:31:21 EDT 1994
  14.00000   4.00000    940714                znucl, zion, pspdat
    1    1    2    2      2001   0.00000      pspcod,pspxc,lmax,lloc,mmax,r2well
    0   5.907  14.692    1   2.0872718        l,e99.0,e99.9,nproj,rcpsp
   0.00000000   0.00000000   0.00000000   0.00000000     rms, ekb1, ekb2, epsatm
    1   2.617   4.181    1   2.0872718        l,e99.0,e99.9,nproj,rcpsp
   0.00000000   0.00000000   0.00000000   0.00000000     rms, ekb1, ekb2, epsatm
    2   0.000   0.000    0   2.0872718        l,e99.0,e99.9,nproj,rcpsp
   0.00000000   0.00000000   0.00000000   0.00000000     rms, ekb1, ekb2, epsatm
    1.80626423934776    0.22824404341771    1.17378968127746   rchrg,fchrg,qchrg
 pspatm: epsatm=    1.43386982
         --- l  ekb(1:nproj) -->
             0    3.287949
             1    1.849886
 pspatm: atomic psp has been read  and splines computed

   3.67070674E+02                                ecore*ucvol(ha*bohr**3)
--------------------------------------------------------------------------------

P newkpt: treating     16 bands with npw=     272 for ikpt=   1
P newkpt: treating     16 bands with npw=     272 for ikpt=   2
P newkpt: treating     16 bands with npw=     272 for ikpt=   3
P newkpt: treating     16 bands with npw=     272 for ikpt=   4

 setup2: Arith. and geom. avg. npw (full set) are     272.000     272.000

================================================================================

     iter   Etot(hartree)      deltaE(h)  residm     vres2    diffor    maxfor
 ETOT  1  -35.155550808424    -3.516E+01 5.508E-03 2.136E+00 6.156E-03 6.156E-03
 ETOT  2  -35.191019602316    -3.547E-02 3.020E-07 1.204E-01 7.158E-03 1.201E-03
 ETOT  3  -35.191554263207    -5.347E-04 3.597E-06 4.099E-03 1.345E-03 1.287E-03
 ETOT  4  -35.191571974273    -1.771E-05 1.597E-07 2.625E-04 2.934E-04 1.339E-03
 ETOT  5  -35.191572827503    -8.532E-07 9.189E-09 1.998E-05 3.531E-05 1.319E-03
 ETOT  6  -35.191572884811    -5.731E-08 6.560E-10 1.689E-06 6.964E-06 1.323E-03
 ETOT  7  -35.191572890296    -5.485E-09 8.377E-11 1.462E-07 1.757E-06 1.322E-03
 ETOT  8  -35.191572890804    -5.077E-10 6.329E-12 9.073E-09 3.957E-07 1.322E-03
 ETOT  9  -35.191572890834    -3.027E-11 2.814E-13 7.374E-10 4.958E-08 1.322E-03
 ETOT 10  -35.191572890836    -2.288E-12 1.807E-14 5.622E-11 1.207E-08 1.322E-03
 ETOT 11  -35.191572890836     7.105E-15 5.713E-15 1.064E-11 3.216E-08 1.322E-03

 At SCF step   11   max residual=  5.71E-15 < tolwfr=  1.00E-14 =>converged.

 Cartesian components of stress tensor (hartree/bohr^3)
  sigma(1 1)=  3.74689988E-04  sigma(3 2)= -1.63105779E-06
  sigma(2 2)=  3.74672404E-04  sigma(3 1)= -2.64360811E-12
  sigma(3 3)=  3.74672402E-04  sigma(2 1)=  4.58757492E-11

================================================================================

 ----iterations are completed or convergence reached----

 Mean square residual over all n,k,spin=   3.8871E-15; max=  5.7129E-15
   0.2500  0.2500  0.2500    1  5.09993E-15 kpt; spin; max resid(k); each band:
 3.95E-15 5.05E-15 1.98E-15 4.24E-15 4.38E-15 2.89E-15 4.95E-15 4.58E-15
 5.10E-15 4.34E-15 2.47E-15 4.41E-15 1.38E-15 2.24E-15 4.97E-15 4.95E-15
  -0.2500  0.2500  0.2500    1  5.71291E-15 kpt; spin; max resid(k); each band:
 3.97E-15 5.20E-15 1.93E-15 4.00E-15 4.10E-15 2.89E-15 4.87E-15 4.34E-15
 5.71E-15 2.56E-15 2.65E-15 4.61E-15 5.70E-16 4.74E-15 4.86E-15 4.94E-15
   0.2500 -0.2500  0.2500    1  5.19359E-15 kpt; spin; max resid(k); each band:
 3.95E-15 3.75E-15 3.11E-15 4.24E-15 4.60E-15 3.66E-15 4.06E-15 4.47E-15
 3.47E-15 2.96E-15 5.19E-15 4.33E-15 1.31E-15 3.71E-15 4.57E-15 5.06E-15
   0.2500  0.2500 -0.2500    1  5.20081E-15 kpt; spin; max resid(k); each band:
 3.94E-15 3.85E-15 3.10E-15 4.19E-15 4.63E-15 3.68E-15 4.31E-15 4.73E-15
 3.45E-15 3.84E-15 5.20E-15 4.08E-15 1.55E-15 2.53E-15 4.80E-15 4.67E-15
 reduced coordinates (array xred) for    8 atoms
       0.001000000000      0.000000000000      0.000000000000
       0.250000000000      0.250000000000      0.250000000000
       0.000000000000      0.500000000000      0.500000000000
       0.250000000000      0.750000000000      0.750000000000
       0.500000000000      0.000000000000      0.500000000000
       0.750000000000      0.250000000000      0.750000000000
       0.500000000000      0.500000000000      0.000000000000
       0.750000000000      0.750000000000      0.250000000000
 rms dE/dt=  3.3780E-03; max dE/dt=  1.3573E-02; dE/dt below (all hartree)
    1       0.013572597911     -0.000000046624     -0.000000194079
    2      -0.003350273096     -0.002251431370     -0.002251471274
    3       0.001779894154      0.000000038926      0.000000171204
    4      -0.003350177169      0.002251432590      0.002251480628
    5      -0.000997603069     -0.000000072099      0.000000162528
    6      -0.003326870738      0.002215509054     -0.002215386514
    7      -0.000997555460      0.000000088202     -0.000000140002
    8      -0.003326925955     -0.002215513438      0.002215426046

 cartesian coordinates (angstrom) at end:
    1      0.00543100390125     0.00000000000000     0.00000000000000
    2      1.35775097531303     1.35775097531303     1.35775097531303
    3      0.00000000000000     2.71550195062606     2.71550195062606
    4      1.35775097531303     4.07325292593909     4.07325292593909
    5      2.71550195062606     0.00000000000000     2.71550195062606
    6      4.07325292593909     1.35775097531303     4.07325292593909
    7      2.71550195062606     2.71550195062606     0.00000000000000
    8      4.07325292593909     4.07325292593909     1.35775097531303

 cartesian forces (hartree/bohr) at end:
    1     -0.00132242683637     0.00000000460668     0.00000001950146
    2      0.00032647598226     0.00021937132359     0.00021937573900
    3     -0.00017338880040    -0.00000000372896    -0.00000001609030
    4      0.00032646663548    -0.00021937131480    -0.00021937546811
    5      0.00009724039700     0.00000000708885    -0.00000001524496
    6      0.00032419574185    -0.00021587105650     0.00021585977164
    7      0.00009723575816    -0.00000000853024     0.00000001423244
    8      0.00032420112203     0.00021587161137    -0.00021586244117
 frms,max,avg= 3.2914377E-04 1.3224268E-03  -3.759E-08 -6.383E-11 -5.912E-10 h/b

 cartesian forces (eV/Angstrom) at end:
    1     -0.06800191634698     0.00000023688484     0.00000100280534
    2      0.01678806859044     0.01128052606443     0.01128075311350
    3     -0.00891600985103    -0.00000019175091    -0.00000082739625
    4      0.01678758795987    -0.01128052561207    -0.01128073918399
    5      0.00500030183923     0.00000036452342    -0.00000078392735
    6      0.01667081392386    -0.01110053510850     0.01109995481775
    7      0.00500006330045    -0.00000043864246     0.00000073186146
    8      0.01667109058416     0.01110056364124    -0.01110009209047
 frms,max,avg= 1.6925252E-02 6.8001916E-02  -1.933E-06 -3.282E-09 -3.040E-08 e/A
 length scales= 10.263110000000 10.263110000000 10.263110000000 bohr
              =  5.431003901252  5.431003901252  5.431003901252 angstroms
 prteigrs : about to open file t40o_EIG
 Fermi (or HOMO) energy (hartree) =   0.18901   Average Vxc (hartree)=  -0.35270
 Eigenvalues (hartree) for nkpt=   4  k points:
 kpt#   1, nband= 16, wtk=  0.25000, kpt=  0.2500  0.2500  0.2500 (reduced coord)
  -0.18705  -0.11528  -0.11501  -0.11501  -0.01372  -0.01352  -0.01339   0.07372
   0.08394   0.08413   0.08414   0.13262   0.13266   0.13279   0.18875   0.18901
 kpt#   2, nband= 16, wtk=  0.25000, kpt= -0.2500  0.2500  0.2500 (reduced coord)
  -0.18705  -0.11528  -0.11501  -0.11501  -0.01372  -0.01352  -0.01339   0.07372
   0.08394   0.08413   0.08414   0.13262   0.13266   0.13279   0.18875   0.18901
 kpt#   3, nband= 16, wtk=  0.25000, kpt=  0.2500 -0.2500  0.2500 (reduced coord)
  -0.18707  -0.11517  -0.11516  -0.11489  -0.01380  -0.01368  -0.01347   0.07388
   0.08416   0.08417   0.08437   0.13251   0.13264   0.13268   0.18867   0.18893
 kpt#   4, nband= 16, wtk=  0.25000, kpt=  0.2500  0.2500 -0.2500 (reduced coord)
  -0.18707  -0.11517  -0.11516  -0.11489  -0.01380  -0.01368  -0.01347   0.07388
   0.08416   0.08417   0.08437   0.13251   0.13264   0.13268   0.18867   0.18893
 Fermi (or HOMO) energy (eV) =   5.14333   Average Vxc (eV)=  -9.59736
 Eigenvalues (   eV  ) for nkpt=   4  k points:
 kpt#   1, nband= 16, wtk=  0.25000, kpt=  0.2500  0.2500  0.2500 (reduced coord)
  -5.08982  -3.13699  -3.12965  -3.12948  -0.37345  -0.36777  -0.36449   2.00607
   2.28399   2.28940   2.28956   3.60888   3.60997   3.61335   5.13613   5.14333
 kpt#   2, nband= 16, wtk=  0.25000, kpt= -0.2500  0.2500  0.2500 (reduced coord)
  -5.08982  -3.13699  -3.12965  -3.12948  -0.37345  -0.36777  -0.36449   2.00607
   2.28399   2.28940   2.28956   3.60888   3.60997   3.61335   5.13613   5.14333
 kpt#   3, nband= 16, wtk=  0.25000, kpt=  0.2500 -0.2500  0.2500 (reduced coord)
  -5.09033  -3.13386  -3.13370  -3.12636  -0.37543  -0.37216  -0.36648   2.01028
   2.29009   2.29028   2.29572   3.60588   3.60929   3.61045   5.13398   5.14117
 kpt#   4, nband= 16, wtk=  0.25000, kpt=  0.2500  0.2500 -0.2500 (reduced coord)
  -5.09033  -3.13386  -3.13370  -3.12636  -0.37543  -0.37216  -0.36648   2.01028
   2.29009   2.29028   2.29572   3.60588   3.60929   3.61045   5.13398   5.14117
 Total charge density [el/Bohr^3]
,     Maximum=    8.8303E-02  at reduced coord.    0.1250    0.1250    0.1250
,Next maximum=    8.8303E-02  at reduced coord.    0.1250    0.8750    0.8750
,     Minimum=    3.4715E-03  at reduced coord.    0.7500    0.2500    0.2500
,Next minimum=    3.4715E-03  at reduced coord.    0.7500    0.7500    0.7500

--------------------------------------------------------------------------------
 Components of total free energy (in Hartree) :

    Kinetic energy  =  1.16819641591959E+01
    Hartree energy  =  2.12455664988183E+00
    XC energy       = -1.41070123136155E+01
    Ewald energy    = -3.35916540166273E+01
    PspCore energy  =  3.39557039532177E-01
    Loc. psp. energy= -9.85491942199854E+00
    NL   psp  energy=  8.21593501279542E+00
    >>>>>>>>> Etotal= -3.51915728908361E+01

 Other information on the energy :
    Total energy(eV)= -9.57611398569711E+02 ; Band energy (Ha)=   1.0575666524E+00
--------------------------------------------------------------------------------

 Cartesian components of stress tensor (hartree/bohr^3)
  sigma(1 1)=  3.74689988E-04  sigma(3 2)= -1.63105779E-06
  sigma(2 2)=  3.74672404E-04  sigma(3 1)= -2.64360811E-12
  sigma(3 3)=  3.74672402E-04  sigma(2 1)=  4.58757492E-11

-Cartesian components of stress tensor (GPa)         [Pressure= -1.1023E+01 GPa]
- sigma(1 1)=  1.10237582E+01  sigma(3 2)= -4.79873689E-02
- sigma(2 2)=  1.10232408E+01  sigma(3 1)= -7.77776227E-08
- sigma(3 3)=  1.10232408E+01  sigma(2 1)=  1.34971091E-06

== END DATASET(S) ==============================================================
================================================================================
  
 -outvars: echo values of variables after computation  --------
     acell    1.0263110000E+01  1.0263110000E+01  1.0263110000E+01 Bohr
       amu    2.80855000E+01
    diemac    1.20000000E+01
      ecut    2.99000000E+00 Hartree
    enunit         2
    etotal   -3.5191572891E+01
     fcart   -1.3224268364E-03  4.6066771079E-09  1.9501460640E-08
              3.2647598226E-04  2.1937132359E-04  2.1937573900E-04
             -1.7338880040E-04 -3.7289617673E-09 -1.6090296719E-08
              3.2646663548E-04 -2.1937131480E-04 -2.1937546811E-04
              9.7240396997E-05  7.0888524530E-09 -1.5244961088E-08
              3.2419574185E-04 -2.1587105650E-04  2.1585977164E-04
              9.7235758156E-05 -8.5302384259E-09  1.4232440658E-08
              3.2420112203E-04  2.1587161137E-04 -2.1586244117E-04
      iscf         3
       kpt    1.00000000E+00  1.00000000E+00  1.00000000E+00
             -1.00000000E+00  1.00000000E+00  1.00000000E+00
              1.00000000E+00 -1.00000000E+00  1.00000000E+00
              1.00000000E+00  1.00000000E+00 -1.00000000E+00
    kptnrm    4.00000000E+00
P    mkmem         4
     natom         8
     nband        16
     ngfft        16      16      16
      nkpt         4
     nstep        15
      nsym         1
     ntime         6
    ntypat         1
       occ    2.000000  2.000000  2.000000  2.000000  2.000000  2.000000
              2.000000  2.000000  2.000000  2.000000  2.000000  2.000000
              2.000000  2.000000  2.000000  2.000000
    occopt         0
   spgroup         1
    strten    3.7468998815E-04  3.7467240411E-04  3.7467240239E-04
             -1.6310577929E-06 -2.6436081085E-12  4.5875749236E-11
    tolwfr    1.00000000E-14
     typat    1  1  1  1  1  1  1  1
       wtk      0.25000    0.25000    0.25000    0.25000
    xangst    5.4310039013E-03  0.0000000000E+00  0.0000000000E+00
              1.3577509753E+00  1.3577509753E+00  1.3577509753E+00
              0.0000000000E+00  2.7155019506E+00  2.7155019506E+00
              1.3577509753E+00  4.0732529259E+00  4.0732529259E+00
              2.7155019506E+00  0.0000000000E+00  2.7155019506E+00
              4.0732529259E+00  1.3577509753E+00  4.0732529259E+00
              2.7155019506E+00  2.7155019506E+00  0.0000000000E+00
              4.0732529259E+00  4.0732529259E+00  1.3577509753E+00
     xcart    1.0263110000E-02  0.0000000000E+00  0.0000000000E+00
              2.5657775000E+00  2.5657775000E+00  2.5657775000E+00
              0.0000000000E+00  5.1315550000E+00  5.1315550000E+00
              2.5657775000E+00  7.6973325000E+00  7.6973325000E+00
              5.1315550000E+00  0.0000000000E+00  5.1315550000E+00
              7.6973325000E+00  2.5657775000E+00  7.6973325000E+00
              5.1315550000E+00  5.1315550000E+00  0.0000000000E+00
              7.6973325000E+00  7.6973325000E+00  2.5657775000E+00
      xred    1.0000000000E-03  0.0000000000E+00  0.0000000000E+00
              2.5000000000E-01  2.5000000000E-01  2.5000000000E-01
              0.0000000000E+00  5.0000000000E-01  5.0000000000E-01
              2.5000000000E-01  7.5000000000E-01  7.5000000000E-01
              5.0000000000E-01  0.0000000000E+00  5.0000000000E-01
              7.5000000000E-01  2.5000000000E-01  7.5000000000E-01
              5.0000000000E-01  5.0000000000E-01  0.0000000000E+00
              7.5000000000E-01  7.5000000000E-01  2.5000000000E-01
     znucl     14.00000

================================================================================

- Total cpu        time (s,m,h):          2.5        0.04      0.001
- Total wall clock time (s,m,h):          2.5        0.04      0.001

- For major independent code sections, cpu and wall times (sec),
- as well as % of the total time and number of calls 

- routine                 cpu     %       wall     %      number of calls 
-                                                          (-1=no count)
- fourwf(pot)            0.741  29.2      0.749  29.5           3776
- timing timab           0.347  13.7      0.346  13.6             11
- nonlop(apply)          0.245   9.7      0.230   9.1           3776
- projbd                 0.226   8.9      0.234   9.2           5888
- pspini                 0.226   8.9      0.225   8.9              1
- invars2                0.109   4.3      0.109   4.3              1
- vtowfk(ssdiag)         0.090   3.5      0.089   3.5             -1
- fourwf(den)            0.085   3.3      0.075   3.0            704
- nonlop(forces)         0.061   2.4      0.065   2.6            704
- getghc-other           0.046   1.8      0.044   1.7             -1
- forces                 0.042   1.7      0.041   1.6             11
- abinit(2)              0.032   1.3      0.031   1.2              1
- mkcore                 0.017   0.7      0.016   0.6             13
- ewald                  0.016   0.6      0.016   0.6              1
- vtowfk(contrib)        0.014   0.6      0.019   0.7             44
- stress                 0.012   0.5      0.013   0.5              1
- 54   others            0.060   2.4      0.049   1.9

- subtotal               2.369  93.3      2.351  92.7

================================================================================

 Calculation completed.
.Delivered    5 WARNINGs and   1 COMMENTs to log file.
+Overall time at end (sec) : cpu=          2.5  wall=          2.5
