
.Version 5.6.3  of ABINIT 
.(sequential version, prepared for a x86_64_linux_gcc4.3 computer) 

.Copyright (C) 1998-2008 ABINIT group . 
 ABINIT comes with ABSOLUTELY NO WARRANTY.
 It is free software, and you are welcome to redistribute it
 under certain conditions (GNU General Public License,
 see ~abinit/COPYING or http://www.gnu.org/copyleft/gpl.txt).

 ABINIT is a project of the Universite Catholique de Louvain,
 Corning Inc. and other collaborators, see ~abinit/doc/developers/contributors.txt .
 Please read ~abinit/doc/users/acknowledgments.html for suggested
 acknowledgments of the ABINIT effort.
 For more information, see http://www.abinit.org .

.Starting date : Thu  6 Nov 2008.
  
- input  file    -> /home/gonze/ABINIT/ABINITv5.6.3/test_gcc43/5.6.3-private/tests/v4/Input/t42.in
- output file    -> t42.out
- root for input  files -> t42i
- root for output files -> t42o


 Symmetries : space group Pm m a (# 51); Bravais oP (primitive ortho.)
================================================================================
 Values of the parameters that define the memory need of the present run
   intxc =         0  ionmov =         0    iscf =         5 xclevel =         1
  lmnmax =         2   lnmax =         2   mband =        22  mffmem =         1
P  mgfft =        72   mkmem =         4 mpssoang=         3     mpw =       459
  mqgrid =      3001   natom =         8    nfft =      7200    nkpt =         4
  nloalg =         4  nspden =         1 nspinor =         1  nsppol =         1
    nsym =         8  n1xccc =      2501  ntypat =         2  occopt =         4
================================================================================
P This job should need less than                       4.110 Mbytes of memory.
  Rough estimation (10% accuracy) of disk space for files :
  WF disk file :      0.618 Mbytes ; DEN or POT disk file :      0.057 Mbytes.
================================================================================

 -outvars: echo values of preprocessed input variables --------
     acell    4.8190801611E+00  4.8187974666E+00  3.5419271007E+01 Bohr
       amu    2.80855000E+01  7.26100000E+01
    diemac    2.00000000E+01
      ecut    5.00000000E+00 Hartree
    ecutsm    1.00000000E+00 Hartree
      iscf         5
       kpt    1.25000000E-01  1.25000000E-01  0.00000000E+00
              3.75000000E-01  1.25000000E-01  0.00000000E+00
              1.25000000E-01  3.75000000E-01  0.00000000E+00
              3.75000000E-01  3.75000000E-01  0.00000000E+00
   kptrlen    1.92751899E+01
    kptopt         1
  kptrlatt    4  0  0   0  4  0   0  0  1
P    mkmem         4
     natom         8
     nband        22
     ngfft        10      10      72
      nkpt         4
     nstep        40
      nsym         8
    ntypat         2
       occ    2.000000  2.000000  2.000000  2.000000  2.000000  2.000000
              2.000000  2.000000  2.000000  2.000000  2.000000  2.000000
              2.000000  2.000000  2.000000  2.000000  0.000000  0.000000
              0.000000  0.000000  0.000000  0.000000
              2.000000  2.000000  2.000000  2.000000  2.000000  2.000000
              2.000000  2.000000  2.000000  2.000000  2.000000  2.000000
              2.000000  2.000000  2.000000  2.000000  0.000000  0.000000
              0.000000  0.000000  0.000000  0.000000
              2.000000  2.000000  2.000000  2.000000  2.000000  2.000000
              2.000000  2.000000  2.000000  2.000000  2.000000  2.000000
              2.000000  2.000000  2.000000  2.000000  0.000000  0.000000
              0.000000  0.000000  0.000000  0.000000
              2.000000  2.000000  2.000000  2.000000  2.000000  2.000000
              2.000000  2.000000  2.000000  2.000000  2.000000  2.000000
              2.000000  2.000000  2.000000  2.000000  0.000000  0.000000
              0.000000  0.000000  0.000000  0.000000
    occopt         4
   prtvhxc         1
    shiftk    5.00000000E-01  5.00000000E-01  0.00000000E+00
   spgroup        51
    symrel    1  0  0   0  1  0   0  0  1      -1  0  0   0 -1  0   0  0 -1
             -1  0  0   0  1  0   0  0 -1       1  0  0   0 -1  0   0  0  1
             -1  0  0   0 -1  0   0  0  1       1  0  0   0  1  0   0  0 -1
              1  0  0   0 -1  0   0  0 -1      -1  0  0   0  1  0   0  0  1
     tnons    0.0000000  0.0000000  0.0000000     0.0000000  0.5000000  0.3750000
              0.0000000  0.5000000  0.3750000     0.0000000  0.0000000  0.0000000
              0.0000000  0.0000000  0.0000000     0.0000000  0.5000000  0.3750000
              0.0000000  0.5000000  0.3750000     0.0000000  0.0000000  0.0000000
    toldff    5.00000000E-05
     typat    1  1  1  1  2  2  2  2
       wtk      0.25000    0.25000    0.25000    0.25000
    xangst    0.0000000000E+00  0.0000000000E+00  1.1273704428E-02
              1.2750736938E+00  0.0000000000E+00  2.3423566014E+00
              1.2750736938E+00  1.2749988961E+00  4.6862950091E+00
              0.0000000000E+00  1.2749988961E+00  7.0173779061E+00
              0.0000000000E+00  0.0000000000E+00  9.3670906428E+00
              1.2750736938E+00  0.0000000000E+00  1.1715127220E+01
              1.2750736938E+00  1.2749988961E+00  1.4056595352E+01
              0.0000000000E+00  1.2749988961E+00  1.6404631929E+01
     xcart    0.0000000000E+00  0.0000000000E+00  2.1304213872E-02
              2.4095400805E+00  0.0000000000E+00  4.4264124822E+00
              2.4095400805E+00  2.4093987333E+00  8.8558141451E+00
              0.0000000000E+00  2.4093987333E+00  1.3260922414E+01
              0.0000000000E+00  0.0000000000E+00  1.7701235977E+01
              2.4095400805E+00  0.0000000000E+00  2.2138382058E+01
              2.4095400805E+00  2.4093987333E+00  2.6563115577E+01
              0.0000000000E+00  2.4093987333E+00  3.1000261658E+01
      xred    0.0000000000E+00  0.0000000000E+00  6.0148651472E-04
              5.0000000000E-01  0.0000000000E+00  1.2497186860E-01
              5.0000000000E-01  5.0000000000E-01  2.5002813139E-01
              0.0000000000E+00  5.0000000000E-01  3.7439851348E-01
              0.0000000000E+00  0.0000000000E+00  4.9976285433E-01
              5.0000000000E-01  0.0000000000E+00  6.2503776696E-01
              5.0000000000E-01  5.0000000000E-01  7.4996223303E-01
              0.0000000000E+00  5.0000000000E-01  8.7523714566E-01
     znucl     14.00000   32.00000

================================================================================

 chkinp: Checking input parameters for consistency.

================================================================================
== DATASET  1 ==================================================================

 Real(R)+Recip(G) space primitive vectors, cartesian coordinates (Bohr,Bohr^-1):
 R(1)=  4.8190802  0.0000000  0.0000000  G(1)=  0.2075085  0.0000000  0.0000000
 R(2)=  0.0000000  4.8187975  0.0000000  G(2)=  0.0000000  0.2075207  0.0000000
 R(3)=  0.0000000  0.0000000 35.4192710  G(3)=  0.0000000  0.0000000  0.0282332
 Unit cell volume ucvol=  8.2251238E+02 bohr^3
 Angles (23,13,12)=  9.00000000E+01  9.00000000E+01  9.00000000E+01 degrees

 getcut: wavevector=  0.0000  0.0000  0.0000  ngfft=  10  10  72
         ecut(hartree)=      5.000   => boxcut(ratio)=   2.01949

--- Pseudopotential description ------------------------------------------------
- pspini: atom type   1  psp file is /home/gonze/ABINIT/ABINITv5.6.3/test_gcc43/5.6.3-private/tests/Psps_for_tests/14si.pspnc
- pspatm: opening atomic psp file    /home/gonze/ABINIT/ABINITv5.6.3/test_gcc43/5.6.3-private/tests/Psps_for_tests/14si.pspnc
  Troullier-Martins psp for element  Si        Thu Oct 27 17:31:21 EDT 1994
  14.00000   4.00000    940714                znucl, zion, pspdat
    1    1    2    2      2001   0.00000      pspcod,pspxc,lmax,lloc,mmax,r2well
    0   5.907  14.692    1   2.0872718        l,e99.0,e99.9,nproj,rcpsp
   0.00000000   0.00000000   0.00000000   0.00000000     rms, ekb1, ekb2, epsatm
    1   2.617   4.181    1   2.0872718        l,e99.0,e99.9,nproj,rcpsp
   0.00000000   0.00000000   0.00000000   0.00000000     rms, ekb1, ekb2, epsatm
    2   0.000   0.000    0   2.0872718        l,e99.0,e99.9,nproj,rcpsp
   0.00000000   0.00000000   0.00000000   0.00000000     rms, ekb1, ekb2, epsatm
    1.80626423934776    0.22824404341771    1.17378968127746   rchrg,fchrg,qchrg
 pspatm: epsatm=    1.43386982
         --- l  ekb(1:nproj) -->
             0    3.287949
             1    1.849886
 pspatm: atomic psp has been read  and splines computed

- pspini: atom type   2  psp file is /home/gonze/ABINIT/ABINITv5.6.3/test_gcc43/5.6.3-private/tests/Psps_for_tests/32ge_lda.fhi
- pspatm: opening atomic psp file    /home/gonze/ABINIT/ABINITv5.6.3/test_gcc43/5.6.3-private/tests/Psps_for_tests/32ge_lda.fhi
 Germanium, fhi98PP : Troullier Martins-type, LDA  PW+x, l=1 local
  32.00000   4.00000    140700                znucl, zion, pspdat
    6    7    1    1       529   0.00000      pspcod,pspxc,lmax,lloc,mmax,r2well
    0.00000000000000    0.00000000000000    0.00000000000000   rchrg,fchrg,qchrg
  1.024700          amesh (Hamman grid)
 pspatm: epsatm=   21.87011590
         --- l  ekb(1:nproj) -->
             0    8.047411
 pspatm: atomic psp has been read  and splines computed

   2.98291017E+03                                ecore*ucvol(ha*bohr**3)
--------------------------------------------------------------------------------

P newkpt: treating     22 bands with npw=     459 for ikpt=   1
P newkpt: treating     22 bands with npw=     440 for ikpt=   2
P newkpt: treating     22 bands with npw=     440 for ikpt=   3
P newkpt: treating     22 bands with npw=     426 for ikpt=   4

 setup2: Arith. and geom. avg. npw (full set) are     441.250     441.095

================================================================================

     iter   Etot(hartree)      deltaE(h)  residm     vres2    diffor    maxfor
 ETOT  1  -32.618982403218    -3.262E+01 6.619E-03 6.592E+03 1.857E-02 1.857E-02
 ETOT  2  -29.571030369708     3.048E+00 2.346E-03 2.842E+04 2.110E-01 2.070E-01
 ETOT  3  -33.550108205008    -3.979E+00 5.825E-03 1.662E+01 2.217E-01 1.468E-02
 ETOT  4  -33.549639849818     4.684E-04 6.022E-04 5.220E+01 1.261E-02 2.068E-03
 ETOT  5  -33.561057577658    -1.142E-02 4.129E-04 9.409E+00 1.243E-03 2.787E-03
 ETOT  6  -33.561440351060    -3.828E-04 2.597E-04 6.710E+00 1.109E-03 3.896E-03
 ETOT  7  -33.565368963789    -3.929E-03 1.577E-04 2.582E+00 3.419E-03 9.918E-04
 ETOT  8  -33.565459997746    -9.103E-05 6.027E-05 2.720E+00 6.054E-04 1.262E-03
 ETOT  9  -33.565969914507    -5.099E-04 8.959E-05 8.283E-01 1.543E-03 6.934E-04
 ETOT 10  -33.566140714037    -1.708E-04 2.656E-05 4.506E-02 7.962E-04 1.546E-04
 ETOT 11  -33.566159405553    -1.869E-05 5.460E-05 4.900E-03 2.314E-04 1.576E-04
 ETOT 12  -33.566160635955    -1.230E-06 1.666E-05 1.238E-03 5.601E-05 1.132E-04
 ETOT 13  -33.566160807122    -1.712E-07 3.556E-05 4.751E-04 2.786E-05 1.283E-04
 ETOT 14  -33.566160867043    -5.992E-08 1.115E-05 3.418E-05 9.506E-06 1.194E-04

 At SCF step   14, forces are converged :
  for the second time, max diff in force=  9.506E-06 < toldff=  5.000E-05

 Cartesian components of stress tensor (hartree/bohr^3)
  sigma(1 1)=  9.47252209E-06  sigma(3 2)=  0.00000000E+00
  sigma(2 2)=  1.03145055E-05  sigma(3 1)=  0.00000000E+00
  sigma(3 3)=  5.57346939E-06  sigma(2 1)=  0.00000000E+00

================================================================================

 ----iterations are completed or convergence reached----

 Mean square residual over all n,k,spin=   2.1646E-07; max=  1.1153E-05
   0.1250  0.1250  0.0000    1  1.11531E-05 kpt; spin; max resid(k); each band:
 4.48E-11 4.38E-11 4.17E-11 5.95E-11 5.21E-11 4.95E-11 6.05E-11 5.91E-11
 5.71E-11 6.33E-11 3.81E-11 3.72E-11 3.22E-11 3.11E-11 2.29E-11 5.04E-11
 7.21E-11 1.08E-10 7.75E-11 1.32E-10 2.94E-10 1.12E-05
   0.3750  0.1250  0.0000    1  4.43051E-06 kpt; spin; max resid(k); each band:
 4.92E-11 4.60E-11 4.46E-11 5.70E-11 5.26E-11 5.03E-11 5.90E-11 5.05E-11
 6.56E-11 7.75E-11 5.13E-11 4.96E-11 5.06E-11 5.74E-11 6.35E-11 4.53E-11
 4.80E-11 4.67E-11 4.98E-11 3.55E-11 1.03E-10 4.43E-06
   0.1250  0.3750  0.0000    1  2.59842E-06 kpt; spin; max resid(k); each band:
 4.63E-11 4.34E-11 3.82E-11 4.66E-11 6.52E-11 4.67E-11 6.47E-11 5.70E-11
 7.30E-11 4.81E-11 6.83E-11 4.79E-11 7.23E-11 5.96E-11 6.80E-11 4.50E-11
 6.25E-11 3.21E-11 5.41E-11 3.81E-11 3.43E-10 2.60E-06
   0.3750  0.3750  0.0000    1  8.61291E-07 kpt; spin; max resid(k); each band:
 5.19E-11 4.50E-11 4.20E-11 6.46E-11 4.58E-11 4.56E-11 5.70E-11 4.97E-11
 5.08E-11 6.35E-11 4.04E-11 5.87E-11 5.12E-11 6.04E-11 6.18E-11 5.37E-11
 4.35E-11 3.90E-11 2.58E-11 4.80E-11 2.37E-10 8.61E-07
 reduced coordinates (array xred) for    8 atoms
       0.000000000000      0.000000000000      0.000601486515
       0.500000000000      0.000000000000      0.124971868602
       0.500000000000      0.500000000000      0.250028131392
       0.000000000000      0.500000000000      0.374398513480
       0.000000000000      0.000000000000      0.499762854332
       0.500000000000      0.000000000000      0.625037766962
       0.500000000000      0.500000000000      0.749962233032
       0.000000000000      0.500000000000      0.875237145662
 rms dE/dt=  1.5836E-03; max dE/dt=  4.2296E-03; dE/dt below (all hartree)
    1       0.000000000000      0.000000000000     -0.003359687033
    2       0.000000000000      0.000000000000      0.000531398176
    3       0.000000000000      0.000000000000     -0.000531398176
    4       0.000000000000      0.000000000000      0.003359687033
    5       0.000000000000      0.000000000000      0.004229593613
    6       0.000000000000      0.000000000000     -0.000795351217
    7       0.000000000000      0.000000000000      0.000795351217
    8       0.000000000000      0.000000000000     -0.004229593613

 cartesian coordinates (angstrom) at end:
    1      0.00000000000000     0.00000000000000     0.01127370442795
    2      1.27507369381117     0.00000000000000     2.34235660143990
    3      1.27507369381117     1.27499889606798     4.68629500912750
    4      0.00000000000000     1.27499889606798     7.01737790613945
    5      0.00000000000000     0.00000000000000     9.36709064281163
    6      1.27507369381117     0.00000000000000    11.71512721996613
    7      1.27507369381117     1.27499889606798    14.05659535237825
    8      0.00000000000000     1.27499889606798    16.40463192953274

 cartesian forces (hartree/bohr) at end:
    1     -0.00000000000000    -0.00000000000000     0.00009485477644
    2     -0.00000000000000    -0.00000000000000    -0.00001500308056
    3     -0.00000000000000    -0.00000000000000     0.00001500308056
    4     -0.00000000000000    -0.00000000000000    -0.00009485477644
    5     -0.00000000000000    -0.00000000000000    -0.00011941503856
    6     -0.00000000000000    -0.00000000000000     0.00002245532431
    7     -0.00000000000000    -0.00000000000000    -0.00002245532431
    8     -0.00000000000000    -0.00000000000000     0.00011941503856
 frms,max,avg= 4.4708979E-05 1.1941504E-04   0.000E+00  0.000E+00  0.000E+00 h/b

 cartesian forces (eV/Angstrom) at end:
    1     -0.00000000000000    -0.00000000000000     0.00487762830799
    2     -0.00000000000000    -0.00000000000000    -0.00077148935688
    3     -0.00000000000000    -0.00000000000000     0.00077148935688
    4     -0.00000000000000    -0.00000000000000    -0.00487762830799
    5     -0.00000000000000    -0.00000000000000    -0.00614056765917
    6     -0.00000000000000    -0.00000000000000     0.00115469910592
    7     -0.00000000000000    -0.00000000000000    -0.00115469910592
    8     -0.00000000000000    -0.00000000000000     0.00614056765917
 frms,max,avg= 2.2990280E-03 6.1405677E-03   0.000E+00  0.000E+00  0.000E+00 e/A
 length scales=  4.819080161100  4.818797466600 35.419271007000 bohr
              =  2.550147387622  2.549997792136 18.743070961777 angstroms
 prteigrs : about to open file t42o_EIG
 Fermi (or HOMO) energy (hartree) =   0.25233   Average Vxc (hartree)=  -0.39304
 Eigenvalues (hartree) for nkpt=   4  k points:
 kpt#   1, nband= 22, wtk=  0.25000, kpt=  0.1250  0.1250  0.0000 (reduced coord)
  -0.26623  -0.24422  -0.23136  -0.19436  -0.18978  -0.11986  -0.11556  -0.03289
   0.01558   0.12708   0.12762   0.28424   0.28513   0.35182   0.35272   0.36052
   0.36494   0.36937   0.37175   0.38334   0.39431   0.44600
      occupation numbers for kpt#   1
   2.00000   2.00000   2.00000   2.00000   2.00000   2.00000   2.00000   2.00000
   2.00000   2.00025   2.00027   0.04399   0.03798   0.00127   0.00117   0.00056
   0.00035   0.00021   0.00016   0.00003   0.00001   0.00000
 kpt#   2, nband= 22, wtk=  0.25000, kpt=  0.3750  0.1250  0.0000 (reduced coord)
  -0.16270  -0.14217  -0.13273  -0.09953  -0.08863  -0.02356  -0.02029   0.06259
   0.06573   0.08086   0.08223   0.08436   0.11857   0.15877   0.17589   0.17610
   0.24021   0.24049   0.25978   0.29482   0.38107   0.42048
      occupation numbers for kpt#   2
   2.00000   2.00000   2.00000   2.00000   2.00000   2.00000   2.00000   2.00000
   2.00000   2.00000   2.00000   2.00000   2.00007   2.01127   2.04709   2.04776
   1.36925   1.35729   0.54784   0.00374   0.00005   0.00000
 kpt#   3, nband= 22, wtk=  0.25000, kpt=  0.1250  0.3750  0.0000 (reduced coord)
  -0.16300  -0.14344  -0.13194  -0.09565  -0.09185  -0.02339  -0.02029   0.06297
   0.06570   0.08119   0.08138   0.08435   0.11935   0.15851   0.17571   0.17620
   0.24019   0.24025   0.25998   0.29455   0.38187   0.42149
      occupation numbers for kpt#   3
   2.00000   2.00000   2.00000   2.00000   2.00000   2.00000   2.00000   2.00000
   2.00000   2.00000   2.00000   2.00000   2.00008   2.01098   2.04652   2.04812
   1.37016   1.36764   0.54057   0.00412   0.00004   0.00000
 kpt#   4, nband= 22, wtk=  0.25000, kpt=  0.3750  0.3750  0.0000 (reduced coord)
  -0.06034  -0.04129  -0.03443   0.00352   0.00539   0.07213   0.07361   0.15266
   0.15544   0.15560   0.15814   0.16412   0.16429   0.16914   0.16950   0.17861
   0.23656   0.25078   0.26931   0.27594   0.27629   0.31160
      occupation numbers for kpt#   4
   2.00000   2.00000   2.00000   2.00000   2.00000   2.00000   2.00000   2.00606
   2.00809   2.00822   2.01060   2.01852   2.01879   2.02834   2.02918   2.05651
   1.51926   0.90698   0.26337   0.13475   0.12943   0.00307
 Total charge density [el/Bohr^3]
,     Maximum=    6.2407E-02  at reduced coord.    0.6000    0.5000    0.8750
,Next maximum=    6.2407E-02  at reduced coord.    0.4000    0.5000    0.8750
,     Minimum=    8.8666E-03  at reduced coord.    0.0000    0.0000    0.5000
,Next minimum=    8.8666E-03  at reduced coord.    0.0000    0.5000    0.8750

--------------------------------------------------------------------------------
 Components of total free energy (in Hartree) :

    Kinetic energy  =  1.19477162720671E+01
    Hartree energy  =  3.22007442761919E-01
    XC energy       = -1.19735478245684E+01
    Ewald energy    = -3.90422513075772E+01
    PspCore energy  =  3.62658393179294E+00
    Loc. psp. energy= -2.53227471411490E+00
    NL   psp  energy=  4.09904776994791E+00
    >>>>> Internal E= -3.35527184296906E+01

    -kT*entropy     = -1.34424373524387E-02
    >>>>>>>>> Etotal= -3.35661608670430E+01

 Other information on the energy :
    Total energy(eV)= -9.13381688059619E+02 ; Band energy (Ha)=   1.1223536273E+00
--------------------------------------------------------------------------------

 Cartesian components of stress tensor (hartree/bohr^3)
  sigma(1 1)=  9.47252209E-06  sigma(3 2)=  0.00000000E+00
  sigma(2 2)=  1.03145055E-05  sigma(3 1)=  0.00000000E+00
  sigma(3 3)=  5.57346939E-06  sigma(2 1)=  0.00000000E+00

-Cartesian components of stress tensor (GPa)         [Pressure= -2.4871E-01 GPa]
- sigma(1 1)=  2.78691175E-01  sigma(3 2)=  0.00000000E+00
- sigma(2 2)=  3.03463179E-01  sigma(3 1)=  0.00000000E+00
- sigma(3 3)=  1.63977103E-01  sigma(2 1)=  0.00000000E+00

== END DATASET(S) ==============================================================
================================================================================
  
 -outvars: echo values of variables after computation  --------
     acell    4.8190801611E+00  4.8187974666E+00  3.5419271007E+01 Bohr
       amu    2.80855000E+01  7.26100000E+01
    diemac    2.00000000E+01
      ecut    5.00000000E+00 Hartree
    ecutsm    1.00000000E+00 Hartree
    etotal   -3.3566160867E+01
     fcart   -0.0000000000E+00 -0.0000000000E+00  9.4854776436E-05
             -0.0000000000E+00 -0.0000000000E+00 -1.5003080565E-05
             -0.0000000000E+00 -0.0000000000E+00  1.5003080565E-05
             -0.0000000000E+00 -0.0000000000E+00 -9.4854776436E-05
             -0.0000000000E+00 -0.0000000000E+00 -1.1941503856E-04
             -0.0000000000E+00 -0.0000000000E+00  2.2455324315E-05
             -0.0000000000E+00 -0.0000000000E+00 -2.2455324315E-05
             -0.0000000000E+00 -0.0000000000E+00  1.1941503856E-04
      iscf         5
       kpt    1.25000000E-01  1.25000000E-01  0.00000000E+00
              3.75000000E-01  1.25000000E-01  0.00000000E+00
              1.25000000E-01  3.75000000E-01  0.00000000E+00
              3.75000000E-01  3.75000000E-01  0.00000000E+00
   kptrlen    1.92751899E+01
    kptopt         1
  kptrlatt    4  0  0   0  4  0   0  0  1
P    mkmem         4
     natom         8
     nband        22
     ngfft        10      10      72
      nkpt         4
     nstep        40
      nsym         8
    ntypat         2
       occ    2.000000  2.000000  2.000000  2.000000  2.000000  2.000000
              2.000000  2.000000  2.000000  2.000251  2.000271  0.043994
              0.037979  0.001267  0.001171  0.000556  0.000347  0.000209
              0.000157  0.000034  0.000007  0.000000
              2.000000  2.000000  2.000000  2.000000  2.000000  2.000000
              2.000000  2.000000  2.000000  2.000000  2.000000  2.000000
              2.000071  2.011269  2.047091  2.047764  1.369249  1.357285
              0.547836  0.003736  0.000047  0.000000
              2.000000  2.000000  2.000000  2.000000  2.000000  2.000000
              2.000000  2.000000  2.000000  2.000000  2.000000  2.000000
              2.000080  2.010984  2.046517  2.048119  1.370161  1.367641
              0.540569  0.004120  0.000042  0.000000
              2.000000  2.000000  2.000000  2.000000  2.000000  2.000000
              2.000000  2.006055  2.008087  2.008221  2.010597  2.018523
              2.018793  2.028339  2.029177  2.056515  1.519256  0.906985
              0.263369  0.134749  0.129435  0.003071
    occopt         4
   prtvhxc         1
    shiftk    5.00000000E-01  5.00000000E-01  0.00000000E+00
   spgroup        51
    strten    9.4725220876E-06  1.0314505543E-05  5.5734693935E-06
              0.0000000000E+00  0.0000000000E+00  0.0000000000E+00
    symrel    1  0  0   0  1  0   0  0  1      -1  0  0   0 -1  0   0  0 -1
             -1  0  0   0  1  0   0  0 -1       1  0  0   0 -1  0   0  0  1
             -1  0  0   0 -1  0   0  0  1       1  0  0   0  1  0   0  0 -1
              1  0  0   0 -1  0   0  0 -1      -1  0  0   0  1  0   0  0  1
     tnons    0.0000000  0.0000000  0.0000000     0.0000000  0.5000000  0.3750000
              0.0000000  0.5000000  0.3750000     0.0000000  0.0000000  0.0000000
              0.0000000  0.0000000  0.0000000     0.0000000  0.5000000  0.3750000
              0.0000000  0.5000000  0.3750000     0.0000000  0.0000000  0.0000000
    toldff    5.00000000E-05
     typat    1  1  1  1  2  2  2  2
       wtk      0.25000    0.25000    0.25000    0.25000
    xangst    0.0000000000E+00  0.0000000000E+00  1.1273704428E-02
              1.2750736938E+00  0.0000000000E+00  2.3423566014E+00
              1.2750736938E+00  1.2749988961E+00  4.6862950091E+00
              0.0000000000E+00  1.2749988961E+00  7.0173779061E+00
              0.0000000000E+00  0.0000000000E+00  9.3670906428E+00
              1.2750736938E+00  0.0000000000E+00  1.1715127220E+01
              1.2750736938E+00  1.2749988961E+00  1.4056595352E+01
              0.0000000000E+00  1.2749988961E+00  1.6404631930E+01
     xcart    0.0000000000E+00  0.0000000000E+00  2.1304213872E-02
              2.4095400805E+00  0.0000000000E+00  4.4264124823E+00
              2.4095400805E+00  2.4093987333E+00  8.8558141452E+00
              0.0000000000E+00  2.4093987333E+00  1.3260922414E+01
              0.0000000000E+00  0.0000000000E+00  1.7701235977E+01
              2.4095400805E+00  0.0000000000E+00  2.2138382058E+01
              2.4095400805E+00  2.4093987333E+00  2.6563115577E+01
              0.0000000000E+00  2.4093987333E+00  3.1000261658E+01
      xred    0.0000000000E+00  0.0000000000E+00  6.0148651472E-04
              5.0000000000E-01  0.0000000000E+00  1.2497186860E-01
              5.0000000000E-01  5.0000000000E-01  2.5002813139E-01
              0.0000000000E+00  5.0000000000E-01  3.7439851348E-01
              0.0000000000E+00  0.0000000000E+00  4.9976285433E-01
              5.0000000000E-01  0.0000000000E+00  6.2503776696E-01
              5.0000000000E-01  5.0000000000E-01  7.4996223303E-01
              0.0000000000E+00  5.0000000000E-01  8.7523714566E-01
     znucl     14.00000   32.00000

================================================================================

- Total cpu        time (s,m,h):          7.1        0.12      0.002
- Total wall clock time (s,m,h):          7.1        0.12      0.002

- For major independent code sections, cpu and wall times (sec),
- as well as % of the total time and number of calls 

- routine                 cpu     %       wall     %      number of calls 
-                                                          (-1=no count)
- fourwf(pot)            2.835  40.0      2.830  39.9           7037
- projbd                 0.819  11.6      0.906  12.8          11258
- nonlop(apply)          0.588   8.3      0.521   7.3           7037
- pspini                 0.384   5.4      0.383   5.4              1
- timing timab           0.351   5.0      0.351   4.9             11
- fourwf(den)            0.273   3.9      0.281   4.0           1218
- vtowfk(ssdiag)         0.253   3.6      0.252   3.6             -1
- vtorho(4)-mkrho-       0.253   3.6      0.253   3.6             28
- vtorho-kpt loop        0.184   2.6      0.188   2.7             14
- status                 0.175   2.5      0.178   2.5           1187
- nonlop(forces)         0.128   1.8      0.121   1.7           1232
- getghc-other           0.124   1.7      0.120   1.7             -1
- invars2                0.123   1.7      0.123   1.7              1
- forces                 0.097   1.4      0.098   1.4             14
- ewald                  0.047   0.7      0.048   0.7              1
- stress                 0.047   0.7      0.046   0.6              1
- ewald2                 0.043   0.6      0.043   0.6              1
- 53   others            0.185   2.6      0.182   2.6

- subtotal               6.909  97.4      6.924  97.6

================================================================================

 Calculation completed.
.Delivered    1 WARNINGs and   0 COMMENTs to log file.
+Overall time at end (sec) : cpu=          7.1  wall=          7.1
