
 **** DERIVATIVE DATABASE ****    
+DDB, Version number     10929

 DDB for AlAs, Raman tensor, Non-linear optical susceptibilities and EO tensor                                                                                                                                                                                           

     natom         2
      nkpt        16
    nsppol         1
      nsym        24
    ntypat         2
    occopt         1
     nband         4
     acell  0.10616530850000D+02  0.10616530850000D+02  0.10616530850000D+02
       amu  0.26981539000000D+02  0.74921590000000D+02
   dilatmx  0.10000000000000D+01
      ecut  0.30000000000000D+01
    ecutsm  0.00000000000000D+00
     intxc         0
      iscf         5
       ixc         3
       kpt -0.25000000000000D+00  0.50000000000000D+00  0.00000000000000D+00
            0.50000000000000D+00 -0.25000000000000D+00  0.00000000000000D+00
           -0.25000000000000D+00 -0.25000000000000D+00  0.25000000000000D+00
           -0.25000000000000D+00  0.00000000000000D+00  0.00000000000000D+00
           -0.25000000000000D+00  0.25000000000000D+00  0.25000000000000D+00
            0.50000000000000D+00  0.50000000000000D+00  0.25000000000000D+00
           -0.25000000000000D+00  0.50000000000000D+00  0.50000000000000D+00
            0.00000000000000D+00 -0.25000000000000D+00  0.00000000000000D+00
            0.25000000000000D+00 -0.25000000000000D+00  0.25000000000000D+00
            0.50000000000000D+00 -0.25000000000000D+00  0.50000000000000D+00
           -0.25000000000000D+00 -0.25000000000000D+00 -0.25000000000000D+00
            0.50000000000000D+00  0.00000000000000D+00  0.25000000000000D+00
           -0.25000000000000D+00  0.00000000000000D+00  0.50000000000000D+00
            0.00000000000000D+00  0.50000000000000D+00  0.25000000000000D+00
            0.00000000000000D+00 -0.25000000000000D+00  0.50000000000000D+00
            0.00000000000000D+00  0.00000000000000D+00  0.25000000000000D+00
    kptnrm  0.10000000000000D+01
     ngfft        12   12   12
    nspden         1
   nspinor         1
       occ  0.20000000000000D+01  0.20000000000000D+01  0.20000000000000D+01
            0.20000000000000D+01
     rprim  0.00000000000000D+00  0.50000000000000D+00  0.50000000000000D+00
            0.50000000000000D+00  0.00000000000000D+00  0.50000000000000D+00
            0.50000000000000D+00  0.50000000000000D+00  0.00000000000000D+00
     sciss  0.00000000000000D+00
    spinat  0.00000000000000D+00  0.00000000000000D+00  0.00000000000000D+00
            0.00000000000000D+00  0.00000000000000D+00  0.00000000000000D+00
    symafm         1    1    1    1    1    1    1    1    1    1    1    1
                   1    1    1    1    1    1    1    1    1    1    1    1
    symrel         1    0    0    0    1    0    0    0    1
                   0   -1    1    0   -1    0    1   -1    0
                  -1    0    0   -1    0    1   -1    1    0
                   0    1   -1    1    0   -1    0    0   -1
                  -1    0    0   -1    1    0   -1    0    1
                   0   -1    1    1   -1    0    0   -1    0
                   1    0    0    0    0    1    0    1    0
                   0    1   -1    0    0   -1    1    0   -1
                  -1    0    1   -1    1    0   -1    0    0
                   0   -1    0    1   -1    0    0   -1    1
                   1    0   -1    0    0   -1    0    1   -1
                   0    1    0    0    0    1    1    0    0
                   1    0   -1    0    1   -1    0    0   -1
                   0   -1    0    0   -1    1    1   -1    0
                  -1    0    1   -1    0    0   -1    1    0
                   0    1    0    1    0    0    0    0    1
                   0    0   -1    0    1   -1    1    0   -1
                   1   -1    0    0   -1    1    0   -1    0
                   0    0    1    1    0    0    0    1    0
                  -1    1    0   -1    0    0   -1    0    1
                   0    0    1    0    1    0    1    0    0
                   1   -1    0    0   -1    0    0   -1    1
                   0    0   -1    1    0   -1    0    1   -1
                  -1    1    0   -1    0    1   -1    0    0
     tnons  0.00000000000000D+00  0.00000000000000D+00  0.00000000000000D+00
            0.00000000000000D+00  0.00000000000000D+00  0.00000000000000D+00
            0.00000000000000D+00  0.00000000000000D+00  0.00000000000000D+00
            0.00000000000000D+00  0.00000000000000D+00  0.00000000000000D+00
            0.00000000000000D+00  0.00000000000000D+00  0.00000000000000D+00
            0.00000000000000D+00  0.00000000000000D+00  0.00000000000000D+00
            0.00000000000000D+00  0.00000000000000D+00  0.00000000000000D+00
            0.00000000000000D+00  0.00000000000000D+00  0.00000000000000D+00
            0.00000000000000D+00  0.00000000000000D+00  0.00000000000000D+00
            0.00000000000000D+00  0.00000000000000D+00  0.00000000000000D+00
            0.00000000000000D+00  0.00000000000000D+00  0.00000000000000D+00
            0.00000000000000D+00  0.00000000000000D+00  0.00000000000000D+00
            0.00000000000000D+00  0.00000000000000D+00  0.00000000000000D+00
            0.00000000000000D+00  0.00000000000000D+00  0.00000000000000D+00
            0.00000000000000D+00  0.00000000000000D+00  0.00000000000000D+00
            0.00000000000000D+00  0.00000000000000D+00  0.00000000000000D+00
            0.00000000000000D+00  0.00000000000000D+00  0.00000000000000D+00
            0.00000000000000D+00  0.00000000000000D+00  0.00000000000000D+00
            0.00000000000000D+00  0.00000000000000D+00  0.00000000000000D+00
            0.00000000000000D+00  0.00000000000000D+00  0.00000000000000D+00
            0.00000000000000D+00  0.00000000000000D+00  0.00000000000000D+00
            0.00000000000000D+00  0.00000000000000D+00  0.00000000000000D+00
            0.00000000000000D+00  0.00000000000000D+00  0.00000000000000D+00
            0.00000000000000D+00  0.00000000000000D+00  0.00000000000000D+00
    tolwfr  0.10000000000000D+01
   tphysel  0.00000000000000D+00
    tsmear  0.40000000000000D-01
     typat         1    2
       wtk  0.62500000000000D-01  0.62500000000000D-01  0.62500000000000D-01
            0.62500000000000D-01  0.62500000000000D-01  0.62500000000000D-01
            0.62500000000000D-01  0.62500000000000D-01  0.62500000000000D-01
            0.62500000000000D-01  0.62500000000000D-01  0.62500000000000D-01
            0.62500000000000D-01  0.62500000000000D-01  0.62500000000000D-01
            0.62500000000000D-01
      xred  0.00000000000000D+00  0.00000000000000D+00  0.00000000000000D+00
            0.25000000000000D+00  0.25000000000000D+00  0.25000000000000D+00
     znucl  0.13000000000000D+02  0.33000000000000D+02
      zion  0.30000000000000D+01  0.50000000000000D+01
 
  Description of the potentials (KB energies)
  vrsio8 (for pseudopotentials)= 10929
  dimekb =  2       lmnmax=  2       usepaw=  0
  Atom type=    1   pspso=  0   nekb=   2
  iln lpsang iproj  ekb(:)
     1     0     1     2.5406576E+00  0.0000000E+00
     2     1     1     0.0000000E+00  1.3538152E+00
  Atom type=    2   pspso=  0   nekb=   1
  iln lpsang iproj  ekb(:)
     1     0     1     8.3875106E-01
 
 **** Database of total energy derivatives ****
 Number of data blocks=    2
  
 2rd derivatives (non-stat.)  - # elements :      81
 qpt  0.00000000E+00  0.00000000E+00  0.00000000E+00   1.0
   1   1   1   1  0.53511255637651D+01  0.00000000000000D+00
   2   1   1   1  0.26755627817636D+01  0.00000000000000D+00
   3   1   1   1  0.26755627799151D+01  0.00000000000000D+00
   1   2   1   1 -0.53510712574433D+01 -0.16647943679820D-16
   2   2   1   1 -0.26755356346789D+01 -0.16163162166039D-17
   3   2   1   1 -0.26755356171777D+01 -0.74852317659701D-17
   1   4   1   1 -0.74641777432468D+01  0.00000000000000D+00
   2   4   1   1  0.56840628681018D-08  0.00000000000000D+00
   3   4   1   1  0.77385525687403D-08  0.00000000000000D+00
   1   1   2   1  0.26755627817636D+01  0.00000000000000D+00
   2   1   2   1  0.53511255637652D+01  0.00000000000000D+00
   3   1   2   1  0.26755627820013D+01  0.00000000000000D+00
   1   2   2   1 -0.26755355574130D+01 -0.16163162166039D-17
   2   2   2   1 -0.53510712574433D+01 -0.76657791266973D-17
   3   2   2   1 -0.26755357000303D+01 -0.29954234911701D-17
   1   4   2   1 -0.52913563426227D-09  0.00000000000000D+00
   2   4   2   1 -0.74641778627511D+01  0.00000000000000D+00
   3   4   2   1 -0.36815013719610D-09  0.00000000000000D+00
   1   1   3   1  0.26755627799151D+01  0.00000000000000D+00
   2   1   3   1  0.26755627820013D+01  0.00000000000000D+00
   3   1   3   1  0.53511255640029D+01  0.00000000000000D+00
   1   2   3   1 -0.26755355209260D+01 -0.74852317659701D-17
   2   2   3   1 -0.26755356227644D+01 -0.29954234911701D-17
   3   2   3   1 -0.53510713227947D+01  0.12065419902049D-17
   1   4   3   1 -0.11851059266971D-08  0.00000000000000D+00
   2   4   3   1 -0.14457666697879D-08  0.00000000000000D+00
   3   4   3   1 -0.74641778678078D+01  0.00000000000000D+00
   1   1   1   2 -0.53510710647243D+01  0.16647943679820D-16
   2   1   1   2 -0.26755355574130D+01  0.16163162166039D-17
   3   1   1   2 -0.26755355209260D+01  0.74852317659701D-17
   1   2   1   2  0.53510731904811D+01  0.00000000000000D+00
   2   2   1   2  0.26755369244770D+01  0.00000000000000D+00
   3   2   1   2  0.26755364196850D+01  0.00000000000000D+00
   1   4   1   2 -0.51781526095305D+02  0.00000000000000D+00
   2   4   1   2  0.20821912299150D-06  0.00000000000000D+00
   3   4   1   2 -0.15977803266532D-06  0.00000000000000D+00
   1   1   2   2 -0.26755356346789D+01  0.16163162166039D-17
   2   1   2   2 -0.53510710647243D+01  0.76657791266973D-17
   3   1   2   2 -0.26755354300454D+01  0.29954234911701D-17
   1   2   2   2  0.26755369244770D+01  0.00000000000000D+00
   2   2   2   2  0.53510731904829D+01  0.00000000000000D+00
   3   2   2   2  0.26755362660051D+01  0.00000000000000D+00
   1   4   2   2  0.57391049031507D-08  0.00000000000000D+00
   2   4   2   2 -0.51781524616488D+02  0.00000000000000D+00
   3   4   2   2  0.60246319290825D-08  0.00000000000000D+00
   1   1   3   2 -0.26755356171777D+01  0.74852317659701D-17
   2   1   3   2 -0.26755355073113D+01  0.29954234911701D-17
   3   1   3   2 -0.53510709373567D+01 -0.12065419902049D-17
   1   2   3   2  0.26755364196850D+01  0.00000000000000D+00
   2   2   3   2  0.26755362660051D+01  0.00000000000000D+00
   3   2   3   2  0.53510725320104D+01  0.00000000000000D+00
   1   4   3   2  0.12148693748763D-07  0.00000000000000D+00
   2   4   3   2  0.74083451502116D-08  0.00000000000000D+00
   3   4   3   2 -0.51781524572198D+02  0.00000000000000D+00
   1   1   1   4 -0.74641778684073D+01  0.00000000000000D+00
   2   1   1   4 -0.52913563426227D-09  0.00000000000000D+00
   3   1   1   4 -0.11851059266971D-08  0.00000000000000D+00
   1   2   1   4 -0.51781524572769D+02  0.00000000000000D+00
   2   2   1   4  0.57391049031507D-08  0.00000000000000D+00
   3   2   1   4  0.12148693748763D-07  0.00000000000000D+00
   1   4   1   4 -0.34789812030461D+03  0.00000000000000D+00
   2   4   1   4  0.11596604009755D+03  0.00000000000000D+00
   3   4   1   4  0.11596604007456D+03  0.00000000000000D+00
   1   1   2   4 -0.13503496248451D-08  0.00000000000000D+00
   2   1   2   4 -0.74641778627511D+01  0.00000000000000D+00
   3   1   2   4 -0.14457666697879D-08  0.00000000000000D+00
   1   2   2   4  0.73866446437461D-08  0.00000000000000D+00
   2   2   2   4 -0.51781524616488D+02  0.00000000000000D+00
   3   2   2   4  0.74083451502116D-08  0.00000000000000D+00
   1   4   2   4  0.11596604012824D+03  0.00000000000000D+00
   2   4   2   4 -0.34789812039861D+03  0.00000000000000D+00
   3   4   2   4  0.11596604012671D+03  0.00000000000000D+00
   1   1   3   4 -0.92925704248486D-09  0.00000000000000D+00
   2   1   3   4 -0.36815013719610D-09  0.00000000000000D+00
   3   1   3   4 -0.74641778678078D+01  0.00000000000000D+00
   1   2   3   4  0.12401511126003D-07  0.00000000000000D+00
   2   2   3   4  0.60246319290825D-08  0.00000000000000D+00
   3   2   3   4 -0.51781524572198D+02  0.00000000000000D+00
   1   4   3   4  0.11596604007451D+03  0.00000000000000D+00
   2   4   3   4  0.11596604009598D+03  0.00000000000000D+00
   3   4   3   4 -0.34789812028201D+03  0.00000000000000D+00
  
 3rd derivatives              - # elements :     189
 qpt  0.00000000E+00  0.00000000E+00  0.00000000E+00   1.0
      0.00000000E+00  0.00000000E+00  0.00000000E+00   1.0
      0.00000000E+00  0.00000000E+00  0.00000000E+00   1.0
   1   4   1   4   1   1 -0.33977249031181D+02  0.00000000000000D+00
   2   4   1   4   1   1  0.16988623933148D+02  0.00000000000000D+00
   3   4   1   4   1   1  0.16988623933148D+02  0.00000000000000D+00
   1   4   2   4   1   1  0.16988628287849D+02  0.00000000000000D+00
   2   4   2   4   1   1  0.00000000000000D+00  0.00000000000000D+00
   3   4   2   4   1   1  0.00000000000000D+00  0.00000000000000D+00
   1   4   3   4   1   1  0.16988628287849D+02  0.00000000000000D+00
   2   4   3   4   1   1  0.00000000000000D+00  0.00000000000000D+00
   3   4   3   4   1   1  0.00000000000000D+00  0.00000000000000D+00
   1   4   1   4   2   1  0.00000000000000D+00  0.00000000000000D+00
   2   4   1   4   2   1  0.16988616388631D+02  0.00000000000000D+00
   3   4   1   4   2   1  0.00000000000000D+00  0.00000000000000D+00
   1   4   2   4   2   1  0.16988623933148D+02  0.00000000000000D+00
   2   4   2   4   2   1 -0.33977249031181D+02  0.00000000000000D+00
   3   4   2   4   2   1  0.16988623933148D+02  0.00000000000000D+00
   1   4   3   4   2   1  0.00000000000000D+00  0.00000000000000D+00
   2   4   3   4   2   1  0.16988628287849D+02  0.00000000000000D+00
   3   4   3   4   2   1  0.00000000000000D+00  0.00000000000000D+00
   1   4   1   4   3   1  0.00000000000000D+00  0.00000000000000D+00
   2   4   1   4   3   1  0.00000000000000D+00  0.00000000000000D+00
   3   4   1   4   3   1  0.16988628287849D+02  0.00000000000000D+00
   1   4   2   4   3   1  0.00000000000000D+00  0.00000000000000D+00
   2   4   2   4   3   1  0.00000000000000D+00  0.00000000000000D+00
   3   4   2   4   3   1  0.16988616388631D+02  0.00000000000000D+00
   1   4   3   4   3   1  0.16988623933148D+02  0.00000000000000D+00
   2   4   3   4   3   1  0.16988623933148D+02  0.00000000000000D+00
   3   4   3   4   3   1 -0.33977249031181D+02  0.00000000000000D+00
   1   4   1   4   1   2  0.23206837893433D+02  0.00000000000000D+00
   2   4   1   4   1   2 -0.11603416770027D+02  0.00000000000000D+00
   3   4   1   4   1   2 -0.11603416770027D+02  0.00000000000000D+00
   1   4   2   4   1   2 -0.11603411309681D+02  0.00000000000000D+00
   2   4   2   4   1   2  0.00000000000000D+00  0.00000000000000D+00
   3   4   2   4   1   2  0.00000000000000D+00  0.00000000000000D+00
   1   4   3   4   1   2 -0.11603411309681D+02  0.00000000000000D+00
   2   4   3   4   1   2  0.00000000000000D+00  0.00000000000000D+00
   3   4   3   4   1   2  0.00000000000000D+00  0.00000000000000D+00
   1   4   1   4   2   2  0.00000000000000D+00  0.00000000000000D+00
   2   4   1   4   2   2 -0.11603432044097D+02  0.00000000000000D+00
   3   4   1   4   2   2  0.00000000000000D+00  0.00000000000000D+00
   1   4   2   4   2   2 -0.11603416770027D+02  0.00000000000000D+00
   2   4   2   4   2   2  0.23206837893433D+02  0.00000000000000D+00
   3   4   2   4   2   2 -0.11603416770027D+02  0.00000000000000D+00
   1   4   3   4   2   2  0.00000000000000D+00  0.00000000000000D+00
   2   4   3   4   2   2 -0.11603411309681D+02  0.00000000000000D+00
   3   4   3   4   2   2  0.00000000000000D+00  0.00000000000000D+00
   1   4   1   4   3   2  0.00000000000000D+00  0.00000000000000D+00
   2   4   1   4   3   2  0.00000000000000D+00  0.00000000000000D+00
   3   4   1   4   3   2 -0.11603411309681D+02  0.00000000000000D+00
   1   4   2   4   3   2  0.00000000000000D+00  0.00000000000000D+00
   2   4   2   4   3   2  0.00000000000000D+00  0.00000000000000D+00
   3   4   2   4   3   2 -0.11603432044097D+02  0.00000000000000D+00
   1   4   3   4   3   2 -0.11603416770027D+02  0.00000000000000D+00
   2   4   3   4   3   2 -0.11603416770027D+02  0.00000000000000D+00
   3   4   3   4   3   2  0.23206837893433D+02  0.00000000000000D+00
   1   4   1   1   1   4 -0.14893202324811D+03  0.00000000000000D+00
   2   4   1   1   1   4  0.74466002043857D+02  0.00000000000000D+00
   3   4   1   1   1   4  0.74466002043857D+02  0.00000000000000D+00
   1   4   2   1   1   4  0.00000000000000D+00  0.00000000000000D+00
   2   4   2   1   1   4  0.74466021204253D+02  0.00000000000000D+00
   3   4   2   1   1   4  0.00000000000000D+00  0.00000000000000D+00
   1   4   3   1   1   4  0.00000000000000D+00  0.00000000000000D+00
   2   4   3   1   1   4  0.00000000000000D+00  0.00000000000000D+00
   3   4   3   1   1   4  0.74466002043857D+02  0.00000000000000D+00
   1   4   1   2   1   4  0.16490697768169D+03  0.00000000000000D+00
   2   4   1   2   1   4 -0.82453484463161D+02  0.00000000000000D+00
   3   4   1   2   1   4 -0.82453484463161D+02  0.00000000000000D+00
   1   4   2   2   1   4  0.00000000000000D+00  0.00000000000000D+00
   2   4   2   2   1   4 -0.82453493218524D+02  0.00000000000000D+00
   3   4   2   2   1   4  0.00000000000000D+00  0.00000000000000D+00
   1   4   3   2   1   4  0.00000000000000D+00  0.00000000000000D+00
   2   4   3   2   1   4  0.00000000000000D+00  0.00000000000000D+00
   3   4   3   2   1   4 -0.82453484463161D+02  0.00000000000000D+00
   1   1   1   4   1   4 -0.33977249031181D+02  0.00000000000000D+00
   2   1   1   4   1   4  0.00000000000000D+00  0.00000000000000D+00
   3   1   1   4   1   4  0.00000000000000D+00  0.00000000000000D+00
   1   2   1   4   1   4  0.23206837893433D+02  0.00000000000000D+00
   2   2   1   4   1   4  0.00000000000000D+00  0.00000000000000D+00
   3   2   1   4   1   4  0.00000000000000D+00  0.00000000000000D+00
   1   4   1   4   1   4  0.33215252220759D+03  0.00000000000000D+00
   2   4   1   4   1   4 -0.11071748062136D+03  0.00000000000000D+00
   3   4   1   4   1   4 -0.11071735402810D+03  0.00000000000000D+00
   1   1   2   4   1   4  0.16988628287849D+02  0.00000000000000D+00
   2   1   2   4   1   4  0.16988629452734D+02  0.00000000000000D+00
   3   1   2   4   1   4  0.00000000000000D+00  0.00000000000000D+00
   1   2   2   4   1   4 -0.11603411309681D+02  0.00000000000000D+00
   2   2   2   4   1   4 -0.11603415663061D+02  0.00000000000000D+00
   3   2   2   4   1   4  0.00000000000000D+00  0.00000000000000D+00
   1   4   2   4   1   4 -0.11071760769275D+03  0.00000000000000D+00
   2   4   2   4   1   4 -0.11071748109949D+03  0.00000000000000D+00
   3   4   2   4   1   4  0.11071753262910D+03  0.00000000000000D+00
   1   1   3   4   1   4  0.16988628287849D+02  0.00000000000000D+00
   2   1   3   4   1   4  0.00000000000000D+00  0.00000000000000D+00
   3   1   3   4   1   4  0.16988623933148D+02  0.00000000000000D+00
   1   2   3   4   1   4 -0.11603411309681D+02  0.00000000000000D+00
   2   2   3   4   1   4  0.00000000000000D+00  0.00000000000000D+00
   3   2   3   4   1   4 -0.11603416770027D+02  0.00000000000000D+00
   1   4   3   4   1   4 -0.11071760769275D+03  0.00000000000000D+00
   2   4   3   4   1   4  0.11071755616314D+03  0.00000000000000D+00
   3   4   3   4   1   4 -0.11071756048673D+03  0.00000000000000D+00
   1   4   1   1   2   4  0.74466002043857D+02  0.00000000000000D+00
   2   4   1   1   2   4  0.00000000000000D+00  0.00000000000000D+00
   3   4   1   1   2   4  0.00000000000000D+00  0.00000000000000D+00
   1   4   2   1   2   4  0.74466002043857D+02  0.00000000000000D+00
   2   4   2   1   2   4 -0.14893202324811D+03  0.00000000000000D+00
   3   4   2   1   2   4  0.74466002043857D+02  0.00000000000000D+00
   1   4   3   1   2   4  0.00000000000000D+00  0.00000000000000D+00
   2   4   3   1   2   4  0.00000000000000D+00  0.00000000000000D+00
   3   4   3   1   2   4  0.74466021204253D+02  0.00000000000000D+00
   1   4   1   2   2   4 -0.82453484463161D+02  0.00000000000000D+00
   2   4   1   2   2   4  0.00000000000000D+00  0.00000000000000D+00
   3   4   1   2   2   4  0.00000000000000D+00  0.00000000000000D+00
   1   4   2   2   2   4 -0.82453484463161D+02  0.00000000000000D+00
   2   4   2   2   2   4  0.16490697768169D+03  0.00000000000000D+00
   3   4   2   2   2   4 -0.82453484463161D+02  0.00000000000000D+00
   1   4   3   2   2   4  0.00000000000000D+00  0.00000000000000D+00
   2   4   3   2   2   4  0.00000000000000D+00  0.00000000000000D+00
   3   4   3   2   2   4 -0.82453493218524D+02  0.00000000000000D+00
   1   1   1   4   2   4  0.16988623933148D+02  0.00000000000000D+00
   2   1   1   4   2   4  0.16988628287849D+02  0.00000000000000D+00
   3   1   1   4   2   4  0.00000000000000D+00  0.00000000000000D+00
   1   2   1   4   2   4 -0.11603416770027D+02  0.00000000000000D+00
   2   2   1   4   2   4 -0.11603411309681D+02  0.00000000000000D+00
   3   2   1   4   2   4  0.00000000000000D+00  0.00000000000000D+00
   1   4   1   4   2   4 -0.11071748062136D+03  0.00000000000000D+00
   2   4   1   4   2   4 -0.11071730682208D+03  0.00000000000000D+00
   3   4   1   4   2   4  0.11071740555772D+03  0.00000000000000D+00
   1   1   2   4   2   4  0.00000000000000D+00  0.00000000000000D+00
   2   1   2   4   2   4 -0.33977249031181D+02  0.00000000000000D+00
   3   1   2   4   2   4  0.00000000000000D+00  0.00000000000000D+00
   1   2   2   4   2   4  0.00000000000000D+00  0.00000000000000D+00
   2   2   2   4   2   4  0.23206837893433D+02  0.00000000000000D+00
   3   2   2   4   2   4  0.00000000000000D+00  0.00000000000000D+00
   1   4   2   4   2   4 -0.11071748109949D+03  0.00000000000000D+00
   2   4   2   4   2   4  0.33215252220759D+03  0.00000000000000D+00
   3   4   2   4   2   4 -0.11071748062136D+03  0.00000000000000D+00
   1   1   3   4   2   4  0.00000000000000D+00  0.00000000000000D+00
   2   1   3   4   2   4  0.16988628287849D+02  0.00000000000000D+00
   3   1   3   4   2   4  0.16988629452734D+02  0.00000000000000D+00
   1   2   3   4   2   4  0.00000000000000D+00  0.00000000000000D+00
   2   2   3   4   2   4 -0.11603411309681D+02  0.00000000000000D+00
   3   2   3   4   2   4 -0.11603415663061D+02  0.00000000000000D+00
   1   4   3   4   2   4  0.11071755616314D+03  0.00000000000000D+00
   2   4   3   4   2   4 -0.11071760769275D+03  0.00000000000000D+00
   3   4   3   4   2   4 -0.11071748109949D+03  0.00000000000000D+00
   1   4   1   1   3   4  0.74466002043857D+02  0.00000000000000D+00
   2   4   1   1   3   4  0.00000000000000D+00  0.00000000000000D+00
   3   4   1   1   3   4  0.00000000000000D+00  0.00000000000000D+00
   1   4   2   1   3   4  0.00000000000000D+00  0.00000000000000D+00
   2   4   2   1   3   4  0.74466002043857D+02  0.00000000000000D+00
   3   4   2   1   3   4  0.00000000000000D+00  0.00000000000000D+00
   1   4   3   1   3   4  0.74466002043857D+02  0.00000000000000D+00
   2   4   3   1   3   4  0.74466002043857D+02  0.00000000000000D+00
   3   4   3   1   3   4 -0.14893202324811D+03  0.00000000000000D+00
   1   4   1   2   3   4 -0.82453484463161D+02  0.00000000000000D+00
   2   4   1   2   3   4  0.00000000000000D+00  0.00000000000000D+00
   3   4   1   2   3   4  0.00000000000000D+00  0.00000000000000D+00
   1   4   2   2   3   4  0.00000000000000D+00  0.00000000000000D+00
   2   4   2   2   3   4 -0.82453484463161D+02  0.00000000000000D+00
   3   4   2   2   3   4  0.00000000000000D+00  0.00000000000000D+00
   1   4   3   2   3   4 -0.82453484463161D+02  0.00000000000000D+00
   2   4   3   2   3   4 -0.82453484463161D+02  0.00000000000000D+00
   3   4   3   2   3   4  0.16490697768169D+03  0.00000000000000D+00
   1   1   1   4   3   4  0.16988623933148D+02  0.00000000000000D+00
   2   1   1   4   3   4  0.00000000000000D+00  0.00000000000000D+00
   3   1   1   4   3   4  0.16988628287849D+02  0.00000000000000D+00
   1   2   1   4   3   4 -0.11603416770027D+02  0.00000000000000D+00
   2   2   1   4   3   4  0.00000000000000D+00  0.00000000000000D+00
   3   2   1   4   3   4 -0.11603411309681D+02  0.00000000000000D+00
   1   4   1   4   3   4 -0.11071748109949D+03  0.00000000000000D+00
   2   4   1   4   3   4  0.11071740555772D+03  0.00000000000000D+00
   3   4   1   4   3   4 -0.11071760769275D+03  0.00000000000000D+00
   1   1   2   4   3   4  0.00000000000000D+00  0.00000000000000D+00
   2   1   2   4   3   4  0.16988623933148D+02  0.00000000000000D+00
   3   1   2   4   3   4  0.16988628287849D+02  0.00000000000000D+00
   1   2   2   4   3   4  0.00000000000000D+00  0.00000000000000D+00
   2   2   2   4   3   4 -0.11603416770027D+02  0.00000000000000D+00
   3   2   2   4   3   4 -0.11603411309681D+02  0.00000000000000D+00
   1   4   2   4   3   4  0.11071753262910D+03  0.00000000000000D+00
   2   4   2   4   3   4 -0.11071748062136D+03  0.00000000000000D+00
   3   4   2   4   3   4 -0.11071730682208D+03  0.00000000000000D+00
   1   1   3   4   3   4  0.00000000000000D+00  0.00000000000000D+00
   2   1   3   4   3   4  0.00000000000000D+00  0.00000000000000D+00
   3   1   3   4   3   4 -0.33977249031181D+02  0.00000000000000D+00
   1   2   3   4   3   4  0.00000000000000D+00  0.00000000000000D+00
   2   2   3   4   3   4  0.00000000000000D+00  0.00000000000000D+00
   3   2   3   4   3   4  0.23206837893433D+02  0.00000000000000D+00
   1   4   3   4   3   4 -0.11071748062136D+03  0.00000000000000D+00
   2   4   3   4   3   4 -0.11071748109949D+03  0.00000000000000D+00
   3   4   3   4   3   4  0.33215252220759D+03  0.00000000000000D+00

 List of bloks and their characteristics 
  
 2rd derivatives (non-stat.)  - # elements :      81
 qpt  0.00000000E+00  0.00000000E+00  0.00000000E+00   1.0
  
 3rd derivatives              - # elements :     189
 qpt  0.00000000E+00  0.00000000E+00  0.00000000E+00   1.0
      0.00000000E+00  0.00000000E+00  0.00000000E+00   1.0
      0.00000000E+00  0.00000000E+00  0.00000000E+00   1.0
