
 **** DERIVATIVE DATABASE ****    
+DDB, Version number     10929

 alas_DDB                                                                                                                                                                                                                                                                

     natom         2
      nkpt        16
    nsppol         1
      nsym        24
    ntypat         2
    occopt         1
     nband         4
     acell  0.10616530850000D+02  0.10616530850000D+02  0.10616530850000D+02
       amu  0.26981539000000D+02  0.74921590000000D+02
   dilatmx  0.10000000000000D+01
      ecut  0.30000000000000D+01
    ecutsm  0.00000000000000D+00
     intxc         0
      iscf         5
       ixc         1
       kpt -0.25000000000000D+00  0.50000000000000D+00  0.00000000000000D+00
            0.50000000000000D+00 -0.25000000000000D+00  0.00000000000000D+00
           -0.25000000000000D+00 -0.25000000000000D+00  0.25000000000000D+00
           -0.25000000000000D+00  0.00000000000000D+00  0.00000000000000D+00
           -0.25000000000000D+00  0.25000000000000D+00  0.25000000000000D+00
            0.50000000000000D+00  0.50000000000000D+00  0.25000000000000D+00
           -0.25000000000000D+00  0.50000000000000D+00  0.50000000000000D+00
            0.00000000000000D+00 -0.25000000000000D+00  0.00000000000000D+00
            0.25000000000000D+00 -0.25000000000000D+00  0.25000000000000D+00
            0.50000000000000D+00 -0.25000000000000D+00  0.50000000000000D+00
           -0.25000000000000D+00 -0.25000000000000D+00 -0.25000000000000D+00
            0.50000000000000D+00  0.00000000000000D+00  0.25000000000000D+00
           -0.25000000000000D+00  0.00000000000000D+00  0.50000000000000D+00
            0.00000000000000D+00  0.50000000000000D+00  0.25000000000000D+00
            0.00000000000000D+00 -0.25000000000000D+00  0.50000000000000D+00
            0.00000000000000D+00  0.00000000000000D+00  0.25000000000000D+00
    kptnrm  0.10000000000000D+01
     ngfft        12   12   12
    nspden         1
   nspinor         1
       occ  0.20000000000000D+01  0.20000000000000D+01  0.20000000000000D+01
            0.20000000000000D+01
     rprim  0.00000000000000D+00  0.50000000000000D+00  0.50000000000000D+00
            0.50000000000000D+00  0.00000000000000D+00  0.50000000000000D+00
            0.50000000000000D+00  0.50000000000000D+00  0.00000000000000D+00
     sciss  0.00000000000000D+00
    spinat  0.00000000000000D+00  0.00000000000000D+00  0.00000000000000D+00
            0.00000000000000D+00  0.00000000000000D+00  0.00000000000000D+00
    symafm         1    1    1    1    1    1    1    1    1    1    1    1
                   1    1    1    1    1    1    1    1    1    1    1    1
    symrel         1    0    0    0    1    0    0    0    1
                   0   -1    1    0   -1    0    1   -1    0
                  -1    0    0   -1    0    1   -1    1    0
                   0    1   -1    1    0   -1    0    0   -1
                  -1    0    0   -1    1    0   -1    0    1
                   0   -1    1    1   -1    0    0   -1    0
                   1    0    0    0    0    1    0    1    0
                   0    1   -1    0    0   -1    1    0   -1
                  -1    0    1   -1    1    0   -1    0    0
                   0   -1    0    1   -1    0    0   -1    1
                   1    0   -1    0    0   -1    0    1   -1
                   0    1    0    0    0    1    1    0    0
                   1    0   -1    0    1   -1    0    0   -1
                   0   -1    0    0   -1    1    1   -1    0
                  -1    0    1   -1    0    0   -1    1    0
                   0    1    0    1    0    0    0    0    1
                   0    0   -1    0    1   -1    1    0   -1
                   1   -1    0    0   -1    1    0   -1    0
                   0    0    1    1    0    0    0    1    0
                  -1    1    0   -1    0    0   -1    0    1
                   0    0    1    0    1    0    1    0    0
                   1   -1    0    0   -1    0    0   -1    1
                   0    0   -1    1    0   -1    0    1   -1
                  -1    1    0   -1    0    1   -1    0    0
     tnons  0.00000000000000D+00  0.00000000000000D+00  0.00000000000000D+00
            0.00000000000000D+00  0.00000000000000D+00  0.00000000000000D+00
            0.00000000000000D+00  0.00000000000000D+00  0.00000000000000D+00
            0.00000000000000D+00  0.00000000000000D+00  0.00000000000000D+00
            0.00000000000000D+00  0.00000000000000D+00  0.00000000000000D+00
            0.00000000000000D+00  0.00000000000000D+00  0.00000000000000D+00
            0.00000000000000D+00  0.00000000000000D+00  0.00000000000000D+00
            0.00000000000000D+00  0.00000000000000D+00  0.00000000000000D+00
            0.00000000000000D+00  0.00000000000000D+00  0.00000000000000D+00
            0.00000000000000D+00  0.00000000000000D+00  0.00000000000000D+00
            0.00000000000000D+00  0.00000000000000D+00  0.00000000000000D+00
            0.00000000000000D+00  0.00000000000000D+00  0.00000000000000D+00
            0.00000000000000D+00  0.00000000000000D+00  0.00000000000000D+00
            0.00000000000000D+00  0.00000000000000D+00  0.00000000000000D+00
            0.00000000000000D+00  0.00000000000000D+00  0.00000000000000D+00
            0.00000000000000D+00  0.00000000000000D+00  0.00000000000000D+00
            0.00000000000000D+00  0.00000000000000D+00  0.00000000000000D+00
            0.00000000000000D+00  0.00000000000000D+00  0.00000000000000D+00
            0.00000000000000D+00  0.00000000000000D+00  0.00000000000000D+00
            0.00000000000000D+00  0.00000000000000D+00  0.00000000000000D+00
            0.00000000000000D+00  0.00000000000000D+00  0.00000000000000D+00
            0.00000000000000D+00  0.00000000000000D+00  0.00000000000000D+00
            0.00000000000000D+00  0.00000000000000D+00  0.00000000000000D+00
            0.00000000000000D+00  0.00000000000000D+00  0.00000000000000D+00
    tolwfr  0.10000000000000D+01
   tphysel  0.00000000000000D+00
    tsmear  0.40000000000000D-01
     typat         1    2
       wtk  0.62500000000000D-01  0.62500000000000D-01  0.62500000000000D-01
            0.62500000000000D-01  0.62500000000000D-01  0.62500000000000D-01
            0.62500000000000D-01  0.62500000000000D-01  0.62500000000000D-01
            0.62500000000000D-01  0.62500000000000D-01  0.62500000000000D-01
            0.62500000000000D-01  0.62500000000000D-01  0.62500000000000D-01
            0.62500000000000D-01
      xred  0.00000000000000D+00  0.00000000000000D+00  0.00000000000000D+00
            0.25000000000000D+00  0.25000000000000D+00  0.25000000000000D+00
     znucl  0.13000000000000D+02  0.33000000000000D+02
      zion  0.30000000000000D+01  0.50000000000000D+01
 
  Description of the potentials (KB energies)
  vrsio8 (for pseudopotentials)= 10929
  dimekb =  2       lmnmax=  2       usepaw=  0
  Atom type=    1   pspso=  0   nekb=   2
  iln lpsang iproj  ekb(:)
     1     0     1     2.5406576E+00  0.0000000E+00
     2     1     1     0.0000000E+00  1.3538152E+00
  Atom type=    2   pspso=  0   nekb=   1
  iln lpsang iproj  ekb(:)
     1     0     1     8.3875106E-01
 
 **** Database of total energy derivatives ****
 Number of data blocks=    3
  
 Total energy                 - # elements :       1
 -0.10094352445044D+02  0.00000000000000D+00
  
 1st derivatives              - # elements :      15
   1   1  0.00000000000000D+00  0.00000000000000D+00
   2   1  0.00000000000000D+00  0.00000000000000D+00
   3   1  0.00000000000000D+00  0.00000000000000D+00
   1   2  0.00000000000000D+00  0.00000000000000D+00
   2   2  0.00000000000000D+00  0.00000000000000D+00
   3   2  0.00000000000000D+00  0.00000000000000D+00
   1   4  0.15367591927485D-01  0.00000000000000D+00
   2   4  0.15367591927832D-01  0.00000000000000D+00
   3   4  0.15367591927951D-01  0.00000000000000D+00
   1   5  0.25033117286361D-03  0.00000000000000D+00
   2   5  0.25033117286361D-03  0.00000000000000D+00
   3   5  0.25033117286361D-03  0.00000000000000D+00
   1   6  0.00000000000000D+00  0.00000000000000D+00
   2   6  0.00000000000000D+00  0.00000000000000D+00
   3   6  0.00000000000000D+00  0.00000000000000D+00
  
 2rd derivatives (non-stat.)  - # elements :     171
 qpt  0.00000000E+00  0.00000000E+00  0.00000000E+00   1.0
   1   1   1   1  0.53499081176563D+01  0.00000000000000D+00
   2   1   1   1  0.26749540652383D+01  0.00000000000000D+00
   3   1   1   1  0.26749540652383D+01  0.00000000000000D+00
   1   2   1   1 -0.53498674914224D+01 -0.16647943679820D-16
   2   2   1   1 -0.26749337945011D+01 -0.16163162166039D-17
   3   2   1   1 -0.26749337945011D+01 -0.74852317659701D-17
   1   4   1   1 -0.47224410090562D+01  0.00000000000000D+00
   2   4   1   1 -0.23217148537036D-07  0.00000000000000D+00
   3   4   1   1 -0.23217148537036D-07  0.00000000000000D+00
   1   1   2   1  0.26749540652383D+01  0.00000000000000D+00
   2   1   2   1  0.53499081176563D+01  0.00000000000000D+00
   3   1   2   1  0.26749540524179D+01  0.00000000000000D+00
   1   2   2   1 -0.26749340845309D+01 -0.16163162166039D-17
   2   2   2   1 -0.53498674914224D+01 -0.76657791266973D-17
   3   2   2   1 -0.26749334068915D+01 -0.29954234911701D-17
   1   4   2   1  0.15818212346922D-08  0.00000000000000D+00
   2   4   2   1 -0.47224410116793D+01  0.00000000000000D+00
   3   4   2   1 -0.15818212346922D-08  0.00000000000000D+00
   1   1   3   1  0.26749540652383D+01  0.00000000000000D+00
   2   1   3   1  0.26749540524179D+01  0.00000000000000D+00
   3   1   3   1  0.53499081048359D+01  0.00000000000000D+00
   1   2   3   1 -0.26749340845309D+01 -0.74852317659701D-17
   2   2   3   1 -0.26749336969213D+01 -0.29954234911701D-17
   3   2   3   1 -0.53498671038128D+01  0.12065419902049D-17
   1   4   3   1  0.26230632133274D-08  0.00000000000000D+00
   2   4   3   1 -0.26230632133274D-08  0.00000000000000D+00
   3   4   3   1 -0.47224410106381D+01  0.00000000000000D+00
   1   1   1   2 -0.53498681631983D+01  0.16647943679820D-16
   2   1   1   2 -0.26749340845309D+01  0.16163162166039D-17
   3   1   1   2 -0.26749340845309D+01  0.74852317659701D-17
   1   2   1   2  0.53499266315856D+01  0.00000000000000D+00
   2   2   1   2  0.26749633311710D+01  0.00000000000000D+00
   3   2   1   2  0.26749633311710D+01  0.00000000000000D+00
   1   4   1   2 -0.45543065609521D+02  0.00000000000000D+00
   2   4   1   2  0.30514221593947D-07  0.00000000000000D+00
   3   4   1   2  0.30514221593947D-07  0.00000000000000D+00
   1   1   2   2 -0.26749337945011D+01  0.16163162166039D-17
   2   1   2   2 -0.53498681631983D+01  0.76657791266973D-17
   3   1   2   2 -0.26749343686972D+01  0.29954234911701D-17
   1   2   2   2  0.26749633311710D+01  0.00000000000000D+00
   2   2   2   2  0.53499266315865D+01  0.00000000000000D+00
   3   2   2   2  0.26749633004153D+01  0.00000000000000D+00
   1   4   2   2 -0.29062259025876D-07  0.00000000000000D+00
   2   4   2   2 -0.45543065560389D+02  0.00000000000000D+00
   3   4   2   2  0.29062259025876D-07  0.00000000000000D+00
   1   1   3   2 -0.26749337945011D+01  0.74852317659701D-17
   2   1   3   2 -0.26749340786674D+01  0.29954234911701D-17
   3   1   3   2 -0.53498684473646D+01 -0.12065419902049D-17
   1   2   3   2  0.26749633311710D+01  0.00000000000000D+00
   2   2   3   2  0.26749633004153D+01  0.00000000000000D+00
   3   2   3   2  0.53499266008305D+01  0.00000000000000D+00
   1   4   3   2 -0.49131833288806D-07  0.00000000000000D+00
   2   4   3   2  0.49131833288806D-07  0.00000000000000D+00
   3   4   3   2 -0.45543065580459D+02  0.00000000000000D+00
   1   1   1   4 -0.47224421789556D+01  0.00000000000000D+00
   2   1   1   4  0.15818212346922D-08  0.00000000000000D+00
   3   1   1   4  0.26230632133274D-08  0.00000000000000D+00
   1   2   1   4 -0.45543068775553D+02  0.00000000000000D+00
   2   2   1   4 -0.29062259025876D-07  0.00000000000000D+00
   3   2   1   4 -0.49131833288806D-07  0.00000000000000D+00
   1   4   1   4 -0.14372490864367D+03  0.00000000000000D+00
   2   4   1   4  0.42221259354120D+02  0.00000000000000D+00
   3   4   1   4  0.42221259337502D+02  0.00000000000000D+00
   1   1   2   4 -0.23217148537036D-07  0.00000000000000D+00
   2   1   2   4 -0.47224421815787D+01  0.00000000000000D+00
   3   1   2   4  0.43811232525586D-07  0.00000000000000D+00
   1   2   2   4  0.30514221593947D-07  0.00000000000000D+00
   2   2   2   4 -0.45543068726421D+02  0.00000000000000D+00
   3   2   2   4 -0.11896607494792D-07  0.00000000000000D+00
   1   4   2   4  0.42221259354120D+02  0.00000000000000D+00
   2   4   2   4 -0.14372490864367D+03  0.00000000000000D+00
   3   4   2   4  0.59282389952044D+02  0.00000000000000D+00
   1   1   3   4 -0.23217148537036D-07  0.00000000000000D+00
   2   1   3   4 -0.15818212346922D-08  0.00000000000000D+00
   3   1   3   4 -0.47224421805375D+01  0.00000000000000D+00
   1   2   3   4  0.30514221593947D-07  0.00000000000000D+00
   2   2   3   4  0.29062259025876D-07  0.00000000000000D+00
   3   2   3   4 -0.45543068746491D+02  0.00000000000000D+00
   1   4   3   4  0.42221259337502D+02  0.00000000000000D+00
   2   4   3   4  0.59282389952044D+02  0.00000000000000D+00
   3   4   3   4 -0.14372490864367D+03  0.00000000000000D+00
   1   1   1   5  0.21681240829806D-10  0.00000000000000D+00
   2   1   1   5 -0.22014101856985D-11  0.00000000000000D+00
   3   1   1   5 -0.23842043175106D-10  0.00000000000000D+00
   1   2   1   5 -0.19837023821157D-11  0.00000000000000D+00
   2   2   1   5 -0.28133268793581D-12  0.00000000000000D+00
   3   2   1   5  0.18038107053658D-11  0.00000000000000D+00
   1   4   1   5 -0.69388939039072D-17  0.00000000000000D+00
   2   4   1   5  0.69388939039072D-17  0.00000000000000D+00
   3   4   1   5 -0.69388939039072D-17  0.00000000000000D+00
   1   5   1   5  0.14347599374968D+01  0.00000000000000D+00
   2   5   1   5  0.64853126273950D+00  0.00000000000000D+00
   3   5   1   5  0.64853126273702D+00  0.00000000000000D+00
   1   6   1   5 -0.47761456138020D-12  0.00000000000000D+00
   2   6   1   5  0.21438441281955D-14  0.00000000000000D+00
   3   6   1   5  0.92800898725203D-11  0.00000000000000D+00
   1   1   2   5  0.21669073161709D-10  0.00000000000000D+00
   2   1   2   5  0.18475300962783D-13  0.00000000000000D+00
   3   1   2   5 -0.21614537417954D-10  0.00000000000000D+00
   1   2   2   5 -0.18753601922229D-11  0.00000000000000D+00
   2   2   2   5  0.44824852751845D-13  0.00000000000000D+00
   3   2   2   5  0.21541143378594D-11  0.00000000000000D+00
   1   4   2   5  0.69388939039072D-17  0.00000000000000D+00
   2   4   2   5 -0.69388939039072D-17  0.00000000000000D+00
   3   4   2   5  0.78062556418956D-17  0.00000000000000D+00
   1   5   2   5  0.64853378480515D+00  0.00000000000000D+00
   2   5   2   5  0.14347624356865D+01  0.00000000000000D+00
   3   5   2   5  0.64853378480024D+00  0.00000000000000D+00
   1   6   2   5 -0.92620174861812D-11  0.00000000000000D+00
   2   6   2   5  0.51939251264053D-16  0.00000000000000D+00
   3   6   2   5  0.92770990734293D-11  0.00000000000000D+00
   1   1   3   5  0.23899815646859D-10  0.00000000000000D+00
   2   1   3   5  0.22574206089480D-11  0.00000000000000D+00
   3   1   3   5 -0.21616802694943D-10  0.00000000000000D+00
   1   2   3   5 -0.16595504121298D-11  0.00000000000000D+00
   2   2   3   5  0.26730806973012D-12  0.00000000000000D+00
   3   2   3   5  0.21281935376552D-11  0.00000000000000D+00
   1   4   3   5  0.00000000000000D+00  0.00000000000000D+00
   2   4   3   5  0.00000000000000D+00  0.00000000000000D+00
   3   4   3   5 -0.69388939039072D-17  0.00000000000000D+00
   1   5   3   5  0.64853216335992D+00  0.00000000000000D+00
   2   5   3   5  0.64853216335745D+00  0.00000000000000D+00
   3   5   3   5  0.14347607339928D+01  0.00000000000000D+00
   1   6   3   5 -0.92617410949451D-11  0.00000000000000D+00
   2   6   3   5 -0.31846618604722D-14  0.00000000000000D+00
   3   6   3   5  0.48370469356674D-12  0.00000000000000D+00
   1   1   1   6 -0.13446771314952D-11  0.00000000000000D+00
   2   1   1   6 -0.82792970113289D+00  0.00000000000000D+00
   3   1   1   6 -0.82792970113422D+00  0.00000000000000D+00
   1   2   1   6  0.88311722011243D-13  0.00000000000000D+00
   2   2   1   6  0.82792190354538D+00  0.00000000000000D+00
   3   2   1   6  0.82792190354530D+00  0.00000000000000D+00
   1   4   1   6  0.20553605945515D+01  0.00000000000000D+00
   2   4   1   6 -0.20553605945515D+01  0.00000000000000D+00
   3   4   1   6 -0.20553605945515D+01  0.00000000000000D+00
   1   5   1   6  0.63419805530193D-07  0.00000000000000D+00
   2   5   1   6  0.60934995544288D-07  0.00000000000000D+00
   3   5   1   6  0.60934996873834D-07  0.00000000000000D+00
   1   6   1   6  0.91081711100579D+00  0.00000000000000D+00
   2   6   1   6  0.40624062534263D-11  0.00000000000000D+00
   3   6   1   6 -0.31552423269065D-14  0.00000000000000D+00
   1   1   2   6 -0.82792986048623D+00  0.00000000000000D+00
   2   1   2   6  0.10721985664746D-13  0.00000000000000D+00
   3   1   2   6 -0.82792986048891D+00  0.00000000000000D+00
   1   2   2   6  0.82792233891087D+00  0.00000000000000D+00
   2   2   2   6 -0.28060086100969D-14  0.00000000000000D+00
   3   2   2   6  0.82792233891083D+00  0.00000000000000D+00
   1   4   2   6 -0.20553601516042D+01  0.00000000000000D+00
   2   4   2   6  0.20553601516042D+01  0.00000000000000D+00
   3   4   2   6 -0.20553601516042D+01  0.00000000000000D+00
   1   5   2   6 -0.72731750074835D-07  0.00000000000000D+00
   2   5   2   6 -0.72278921685936D-07  0.00000000000000D+00
   3   5   2   6 -0.72731754447129D-07  0.00000000000000D+00
   1   6   2   6  0.40618665380183D-11  0.00000000000000D+00
   2   6   2   6  0.91081730152619D+00  0.00000000000000D+00
   3   6   2   6 -0.40635676687533D-11  0.00000000000000D+00
   1   1   3   6 -0.82792986228220D+00  0.00000000000000D+00
   2   1   3   6 -0.82792986228354D+00  0.00000000000000D+00
   3   1   3   6  0.13470595641751D-11  0.00000000000000D+00
   1   2   3   6  0.82792212551316D+00  0.00000000000000D+00
   2   2   3   6  0.82792212551316D+00  0.00000000000000D+00
   3   2   3   6  0.74974558143430D-13  0.00000000000000D+00
   1   4   3   6 -0.20553602502542D+01  0.00000000000000D+00
   2   4   3   6 -0.20553602502542D+01  0.00000000000000D+00
   3   4   3   6  0.20553602502542D+01  0.00000000000000D+00
   1   5   3   6  0.99723336539171D-07  0.00000000000000D+00
   2   5   3   6  0.99723333680672D-07  0.00000000000000D+00
   3   5   3   6  0.98845535674677D-07  0.00000000000000D+00
   1   6   3   6 -0.33671483586216D-14  0.00000000000000D+00
   2   6   3   6 -0.40632101495726D-11  0.00000000000000D+00
   3   6   3   6  0.91081732455028D+00  0.00000000000000D+00

 List of bloks and their characteristics 
  
 Total energy                 - # elements :       1
  
 1st derivatives              - # elements :      15
  
 2rd derivatives (non-stat.)  - # elements :     171
 qpt  0.00000000E+00  0.00000000E+00  0.00000000E+00   1.0
