
 **** DERIVATIVE DATABASE ****    
+DDB, Version number     10929

 merged DDB file of strained Si                                                                                                                                                                                                                                          

     natom         2
      nkpt        16
    nsppol         1
      nsym         4
    ntypat         1
    occopt         1
     nband         4
     acell  0.10215000000000D+02  0.10215000000000D+02  0.97000000000000D+01
       amu  0.28085500000000D+02
   dilatmx  0.10000000000000D+01
      ecut  0.50000000000000D+01
    ecutsm  0.00000000000000D+00
     intxc         0
      iscf         5
       ixc         1
       kpt  0.00000000000000D+00 -0.25000000000000D+00  0.00000000000000D+00
            0.25000000000000D+00  0.50000000000000D+00  0.00000000000000D+00
            0.50000000000000D+00 -0.25000000000000D+00  0.00000000000000D+00
            0.00000000000000D+00  0.50000000000000D+00  0.25000000000000D+00
            0.25000000000000D+00 -0.25000000000000D+00  0.25000000000000D+00
            0.00000000000000D+00 -0.25000000000000D+00  0.50000000000000D+00
            0.25000000000000D+00  0.00000000000000D+00  0.00000000000000D+00
            0.00000000000000D+00  0.00000000000000D+00  0.25000000000000D+00
            0.25000000000000D+00  0.25000000000000D+00  0.25000000000000D+00
            0.50000000000000D+00  0.50000000000000D+00  0.25000000000000D+00
           -0.25000000000000D+00 -0.25000000000000D+00  0.25000000000000D+00
            0.25000000000000D+00  0.50000000000000D+00  0.50000000000000D+00
            0.50000000000000D+00 -0.25000000000000D+00  0.50000000000000D+00
            0.25000000000000D+00 -0.25000000000000D+00 -0.25000000000000D+00
            0.50000000000000D+00  0.00000000000000D+00  0.25000000000000D+00
            0.25000000000000D+00  0.00000000000000D+00  0.50000000000000D+00
    kptnrm  0.10000000000000D+01
     ngfft        16   16   16
    nspden         1
   nspinor         1
       occ  0.20000000000000D+01  0.20000000000000D+01  0.20000000000000D+01
            0.20000000000000D+01
     rprim  0.24989580000000D-01  0.49937513000000D+00  0.50000000000000D+00
            0.49937513000000D+00  0.24989580000000D-01  0.50000000000000D+00
            0.52436470000000D+00  0.52436470000000D+00  0.00000000000000D+00
     sciss  0.00000000000000D+00
    spinat  0.00000000000000D+00  0.00000000000000D+00  0.00000000000000D+00
            0.00000000000000D+00  0.00000000000000D+00  0.00000000000000D+00
    symafm         1    1    1    1
    symrel         1    0    0    0    1    0    0    0    1
                  -1    0    0    0   -1    0    0    0   -1
                   0   -1    0   -1    0    0    0    0   -1
                   0    1    0    1    0    0    0    0    1
     tnons  0.00000000000000D+00  0.00000000000000D+00  0.00000000000000D+00
            0.25000000000070D+00  0.25000000000070D+00  0.25000000000556D+00
            0.25000000000070D+00  0.25000000000070D+00  0.25000000000556D+00
            0.00000000000000D+00  0.00000000000000D+00  0.00000000000000D+00
    tolwfr  0.10000000000000D+01
   tphysel  0.00000000000000D+00
    tsmear  0.40000000000000D-01
     typat         1    1
       wtk  0.62500000000000D-01  0.62500000000000D-01  0.62500000000000D-01
            0.62500000000000D-01  0.62500000000000D-01  0.62500000000000D-01
            0.62500000000000D-01  0.62500000000000D-01  0.62500000000000D-01
            0.62500000000000D-01  0.62500000000000D-01  0.62500000000000D-01
            0.62500000000000D-01  0.62500000000000D-01  0.62500000000000D-01
            0.62500000000000D-01
      xred  0.32588142207000D-02  0.32588142207000D-02  0.28033396555999D-03
            0.24674118578000D+00  0.24674118578000D+00  0.24971966604000D+00
     znucl  0.14000000000000D+02
      zion  0.40000000000000D+01
 
  Description of the potentials (KB energies)
  vrsio8 (for pseudopotentials)= 10929
  dimekb =  2       lmnmax=  2       usepaw=  0
  Atom type=    1   pspso=  0   nekb=   2
  iln lpsang iproj  ekb(:)
     1     0     1     3.2879487E+00  0.0000000E+00
     2     1     1     0.0000000E+00  1.8498858E+00
 
 **** Database of total energy derivatives ****
 Number of data blocks=    3
  
 Total energy                 - # elements :       1
 -0.88455152253525D+01  0.00000000000000D+00
  
 1st derivatives              - # elements :      12
   1   1 -0.15153108363571D-02  0.00000000000000D+00
   2   1 -0.15153108363571D-02  0.00000000000000D+00
   3   1 -0.17940123985993D-02  0.00000000000000D+00
   1   2  0.15153108363571D-02  0.00000000000000D+00
   2   2  0.15153108363571D-02  0.00000000000000D+00
   3   2  0.17940123985993D-02  0.00000000000000D+00
   1   5 -0.12131666162899D-03  0.00000000000000D+00
   2   5 -0.12131666162899D-03  0.00000000000000D+00
   3   5 -0.15933260675446D-04  0.00000000000000D+00
   1   6  0.71466592148424D-04  0.00000000000000D+00
   2   6  0.71466592148424D-04  0.00000000000000D+00
   3   6  0.13590286619240D-03  0.00000000000000D+00
  
 2rd derivatives (non-stat.)  - # elements :     108
 qpt  0.00000000E+00  0.00000000E+00  0.00000000E+00   1.0
   1   1   1   1  0.79697868669412D+01  0.00000000000000D+00
   2   1   1   1  0.42861572535363D+01  0.00000000000000D+00
   3   1   1   1  0.39892451117803D+01  0.00000000000000D+00
   1   2   1   1 -0.79697865396285D+01  0.13162297794181D-16
   2   2   1   1 -0.42861569782328D+01  0.93746649665671D-17
   3   2   1   1 -0.39892449453025D+01 -0.66889309446548D-17
   1   1   2   1  0.42861572535363D+01  0.00000000000000D+00
   2   1   2   1  0.79697868669412D+01  0.00000000000000D+00
   3   1   2   1  0.39892447064518D+01  0.00000000000000D+00
   1   2   2   1 -0.42861569782328D+01  0.93746649665671D-17
   2   2   2   1 -0.79697865396285D+01  0.10520765273096D-16
   3   2   2   1 -0.39892450324277D+01 -0.18678490587121D-16
   1   1   3   1  0.39892447064518D+01  0.00000000000000D+00
   2   1   3   1  0.39892447064518D+01  0.00000000000000D+00
   3   1   3   1  0.77887115134681D+01  0.00000000000000D+00
   1   2   3   1 -0.39892450324277D+01 -0.66889309446548D-17
   2   2   3   1 -0.39892450324277D+01 -0.18678490587121D-16
   3   2   3   1 -0.77887105865104D+01  0.65863485305894D-18
   1   1   1   2 -0.79697865396285D+01 -0.13162297794181D-16
   2   1   1   2 -0.42861569782328D+01 -0.93746649665671D-17
   3   1   1   2 -0.39892450324277D+01  0.66889309446548D-17
   1   2   1   2  0.79697868669411D+01  0.00000000000000D+00
   2   2   1   2  0.42861572535363D+01  0.00000000000000D+00
   3   2   1   2  0.39892451117804D+01  0.00000000000000D+00
   1   1   2   2 -0.42861569782328D+01 -0.93746649665671D-17
   2   1   2   2 -0.79697865396285D+01 -0.10520765273096D-16
   3   1   2   2 -0.39892450324277D+01  0.18678490587121D-16
   1   2   2   2  0.42861572535363D+01  0.00000000000000D+00
   2   2   2   2  0.79697868669411D+01  0.00000000000000D+00
   3   2   2   2  0.39892447064518D+01  0.00000000000000D+00
   1   1   3   2 -0.39892449453025D+01  0.66889309446548D-17
   2   1   3   2 -0.39892450324277D+01  0.18678490587121D-16
   3   1   3   2 -0.77887105865104D+01 -0.65863485305894D-18
   1   2   3   2  0.39892447064518D+01  0.00000000000000D+00
   2   2   3   2  0.39892447064518D+01  0.00000000000000D+00
   3   2   3   2  0.77887115134683D+01  0.00000000000000D+00
   1   1   1   5  0.10483384085600D+00  0.00000000000000D+00
   2   1   1   5  0.22054835638933D+00  0.00000000000000D+00
   3   1   1   5  0.15255467798983D+00  0.00000000000000D+00
   1   2   1   5 -0.10483384085599D+00  0.00000000000000D+00
   2   2   1   5 -0.22054835638934D+00  0.00000000000000D+00
   3   2   1   5 -0.15255467798983D+00  0.00000000000000D+00
   1   5   1   5  0.16695428703732D+01  0.00000000000000D+00
   2   5   1   5  0.75076401557236D+00  0.00000000000000D+00
   3   5   1   5  0.67349162720564D+00  0.00000000000000D+00
   1   6   1   5 -0.13659387691025D-01  0.00000000000000D+00
   2   6   1   5  0.81796692587328D-03  0.00000000000000D+00
   3   6   1   5 -0.31259812213952D-01  0.00000000000000D+00
   1   1   2   5  0.22054831508663D+00  0.00000000000000D+00
   2   1   2   5  0.10483376419002D+00  0.00000000000000D+00
   3   1   2   5  0.15255461637239D+00  0.00000000000000D+00
   1   2   2   5 -0.22054831508663D+00  0.00000000000000D+00
   2   2   2   5 -0.10483376419003D+00  0.00000000000000D+00
   3   2   2   5 -0.15255461637240D+00  0.00000000000000D+00
   1   5   2   5  0.75076406410387D+00  0.00000000000000D+00
   2   5   2   5  0.16695429048053D+01  0.00000000000000D+00
   3   5   2   5  0.67349167641460D+00  0.00000000000000D+00
   1   6   2   5  0.81799942022211D-03  0.00000000000000D+00
   2   6   2   5 -0.13659372192059D-01  0.00000000000000D+00
   3   6   2   5 -0.31259778753814D-01  0.00000000000000D+00
   1   1   3   5  0.31138661460627D+00  0.00000000000000D+00
   2   1   3   5  0.31138661459810D+00  0.00000000000000D+00
   3   1   3   5  0.15906259373471D+00  0.00000000000000D+00
   1   2   3   5 -0.31138661460626D+00  0.00000000000000D+00
   2   2   3   5 -0.31138661459810D+00  0.00000000000000D+00
   3   2   3   5 -0.15906259373470D+00  0.00000000000000D+00
   1   5   3   5  0.67349167274730D+00  0.00000000000000D+00
   2   5   3   5  0.67349167274359D+00  0.00000000000000D+00
   3   5   3   5  0.18332716258426D+01  0.00000000000000D+00
   1   6   3   5 -0.28406892855422D-01  0.00000000000000D+00
   2   6   3   5 -0.28406892849166D-01  0.00000000000000D+00
   3   6   3   5 -0.15989838982754D-01  0.00000000000000D+00
   1   1   1   6  0.20670712128107D+00  0.00000000000000D+00
   2   1   1   6 -0.10374755221678D+01  0.00000000000000D+00
   3   1   1   6 -0.10161038970247D+01  0.00000000000000D+00
   1   2   1   6 -0.20670712128107D+00  0.00000000000000D+00
   2   2   1   6  0.10374755221678D+01  0.00000000000000D+00
   3   2   1   6  0.10161038970247D+01  0.00000000000000D+00
   1   5   1   6 -0.13659354835763D-01  0.00000000000000D+00
   2   5   1   6  0.81801342844233D-03  0.00000000000000D+00
   3   5   1   6 -0.28406893566159D-01  0.00000000000000D+00
   1   6   1   6  0.10707394873163D+01  0.00000000000000D+00
   2   6   1   6 -0.42995363494013D-01  0.00000000000000D+00
   3   6   1   6 -0.24958720908297D-01  0.00000000000000D+00
   1   1   2   6 -0.10374754579130D+01  0.00000000000000D+00
   2   1   2   6  0.20670717970792D+00  0.00000000000000D+00
   3   1   2   6 -0.10161040017868D+01  0.00000000000000D+00
   1   2   2   6  0.10374754579130D+01  0.00000000000000D+00
   2   2   2   6 -0.20670717970791D+00  0.00000000000000D+00
   3   2   2   6  0.10161040017868D+01  0.00000000000000D+00
   1   5   2   6  0.81801760494907D-03  0.00000000000000D+00
   2   5   2   6 -0.13659339834891D-01  0.00000000000000D+00
   3   5   2   6 -0.28406891330604D-01  0.00000000000000D+00
   1   6   2   6 -0.42995352670584D-01  0.00000000000000D+00
   2   6   2   6  0.10707396164817D+01  0.00000000000000D+00
   3   6   2   6 -0.24958784738649D-01  0.00000000000000D+00
   1   1   3   6 -0.10698091814104D+01  0.00000000000000D+00
   2   1   3   6 -0.10698091814132D+01  0.00000000000000D+00
   3   1   3   6  0.11160138602264D+00  0.00000000000000D+00
   1   2   3   6  0.10698091814104D+01  0.00000000000000D+00
   2   2   3   6  0.10698091814133D+01  0.00000000000000D+00
   3   2   3   6 -0.11160138602264D+00  0.00000000000000D+00
   1   5   3   6 -0.31259801771201D-01  0.00000000000000D+00
   2   5   3   6 -0.31259801771274D-01  0.00000000000000D+00
   3   5   3   6 -0.15989825781199D-01  0.00000000000000D+00
   1   6   3   6 -0.24958708505172D-01  0.00000000000000D+00
   2   6   3   6 -0.24958708507094D-01  0.00000000000000D+00
   3   6   3   6  0.10736398512875D+01  0.00000000000000D+00

 List of bloks and their characteristics 
  
 Total energy                 - # elements :       1
  
 1st derivatives              - # elements :      12
  
 2rd derivatives (non-stat.)  - # elements :     108
 qpt  0.00000000E+00  0.00000000E+00  0.00000000E+00   1.0
