
.Version 5.6.3  of ABINIT 
.(sequential version, prepared for a x86_64_linux_gcc4.3 computer) 

.Copyright (C) 1998-2008 ABINIT group . 
 ABINIT comes with ABSOLUTELY NO WARRANTY.
 It is free software, and you are welcome to redistribute it
 under certain conditions (GNU General Public License,
 see ~abinit/COPYING or http://www.gnu.org/copyleft/gpl.txt).

 ABINIT is a project of the Universite Catholique de Louvain,
 Corning Inc. and other collaborators, see ~abinit/doc/developers/contributors.txt .
 Please read ~abinit/doc/users/acknowledgments.html for suggested
 acknowledgments of the ABINIT effort.
 For more information, see http://www.abinit.org .

.Starting date : Thu  6 Nov 2008.
  
- input  file    -> /home/gonze/ABINIT/ABINITv5.6.3/test_gcc43/5.6.3-private/tests/v4/Input/t94.in
- output file    -> t94.out
- root for input  files -> t94i
- root for output files -> t94o


 Symmetries : space group P1 (#  1); Bravais aP (primitive triclinic)
================================================================================
 Values of the parameters that define the memory need of the present run
   intxc =         0  ionmov =         0    iscf =        14 xclevel =         1
  lmnmax =        13   lnmax =         5   mband =         6  mffmem =         1
P  mgfft =        10   mkmem =         2 mpssoang=         3     mpw =        28
  mqgrid =      3001   natom =         1    nfft =       640    nkpt =         2
  nloalg =         4  nspden =         1 nspinor =         1  nsppol =         1
    nsym =         1  n1xccc =         1  ntypat =         1  occopt =         7
 PAW method is used; the additional fine FFT grid is defined by:
   mgfftf=        20    nfftf =      5760
================================================================================
P This job should need less than                       3.586 Mbytes of memory.
  Rough estimation (10% accuracy) of disk space for files :
  WF disk file :      0.007 Mbytes ; DEN or POT disk file :      0.046 Mbytes.
================================================================================

 -outvars: echo values of preprocessed input variables --------
     acell    3.0000000000E+00  3.5000000000E+00  4.0000000000E+00 Bohr
       amu    4.00780000E+01
      ecut    3.00000000E+00 Hartree
    enunit         2
    fftalg       400
    iprcch         0
      iscf        14
    istwfk      2    0
       ixc         7
       kpt    0.00000000E+00  0.00000000E+00  0.00000000E+00
              3.00000000E-01  3.00000000E-01  3.00000000E-01
P    mkmem         2
     natom         1
     nband         6
  nbdblock         2
     ngfft         8       8      10
   ngfftdg        16      18      20
      nkpt         2
     nline        10
    nnsclo         1
     nstep        25
      nsym         1
     ntime         5
    ntypat         1
       occ    2.000000  2.000000  2.000000  2.000000  2.000000  0.000000
              2.000000  2.000000  2.000000  2.000000  2.000000  0.000000
    occopt         7
    ortalg         1
 pawecutdg    1.50000000E+01 Hartree
  pawmixdg         1
     prtwf         0
     rprim    1.4000000000E+00  0.0000000000E+00  0.0000000000E+00
              0.0000000000E+00  1.4000000000E+00  0.0000000000E+00
              0.0000000000E+00  0.0000000000E+00  1.4000000000E+00
   spgroup         1
    toldfe    1.00000000E-08 Hartree
    tsmear    2.00000000E-02 Hartree
     typat    1
    useylm         1
  wfoptalg         4
       wtk      0.50000    0.50000
     znucl     20.00000

================================================================================

 chkinp: Checking input parameters for consistency.

================================================================================
== DATASET  1 ==================================================================

 Real(R)+Recip(G) space primitive vectors, cartesian coordinates (Bohr,Bohr^-1):
 R(1)=  4.2000000  0.0000000  0.0000000  G(1)=  0.2380952  0.0000000  0.0000000
 R(2)=  0.0000000  4.9000000  0.0000000  G(2)=  0.0000000  0.2040816  0.0000000
 R(3)=  0.0000000  0.0000000  5.6000000  G(3)=  0.0000000  0.0000000  0.1785714
 Unit cell volume ucvol=  1.1524800E+02 bohr^3
 Angles (23,13,12)=  9.00000000E+01  9.00000000E+01  9.00000000E+01 degrees

 Coarse grid specifications (used for wave-functions):

 getcut: wavevector=  0.0000  0.0000  0.0000  ngfft=   8   8  10
         ecut(hartree)=      3.000   => boxcut(ratio)=   2.09396

 Fine grid specifications (used for densities):

 getcut: wavevector=  0.0000  0.0000  0.0000  ngfft=  16  18  20
         ecut(hartree)=     15.000   => boxcut(ratio)=   2.04848

--- Pseudopotential description ------------------------------------------------
- pspini: atom type   1  psp file is /home/gonze/ABINIT/ABINITv5.6.3/test_gcc43/5.6.3-private/tests/Psps_for_tests/20ca.paw
- pspatm: opening atomic psp file    /home/gonze/ABINIT/ABINITv5.6.3/test_gcc43/5.6.3-private/tests/Psps_for_tests/20ca.paw
 Paw atomic data for element Ca - Generated by AtomPAW (N. Holzwarth)
  20.00000  10.00000  20040423                znucl, zion, pspdat
    7    7    2    0       350   0.00000      pspcod,pspxc,lmax,lloc,mmax,r2well
 Pseudopotential format is: paw2
 basis_size (lnmax)=  5 (lmn_size= 13), orbitals=   0   0   1   1   2
 Spheres core radius: rc_sph= 1.91000000
 2 radial meshes are used:
  - mesh 1: r(i)=AA*exp(BB*(i-2)), size= 350 , AA= 0.98023E-05 BB= 0.35000E-01
  - mesh 2: r(i)=step*(i-1), size= 766 , step= 0.25000E-02
 Shapefunction is SIN type: shapef(r)=[sin(pi*r/rshp)/(pi*r/rshp)]**2
 Radius for shape functions = sphere core radius
 Radial grid used for partial waves is grid 1
 Radial grid used for projectors is grid 2
 Radial grid used for (t)core density is grid 1
 Radial grid used for Vloc is grid 1
 pspatm: atomic psp has been read  and splines computed

   2.49056342E+02                                ecore*ucvol(ha*bohr**3)
--------------------------------------------------------------------------------

P newkpt: treating      6 bands with npw=      15 for ikpt=   1
P newkpt: treating      6 bands with npw=      28 for ikpt=   2

 setup2: Arith. and geom. avg. npw (full set) are      28.500      28.496

================================================================================

     iter   Etot(hartree)      deltaE(h)  residm     nres2    diffor    maxfor
 ETOT  1  -33.277612404323    -3.328E+01 6.186E-04 6.032E+00 0.000E+00 0.000E+00
 ETOT  2  -33.272392409270     5.220E-03 9.692E-07 1.031E+00 0.000E+00 0.000E+00
 ETOT  3  -33.254673977625     1.772E-02 3.978E-05 4.878E-02 0.000E+00 0.000E+00
 ETOT  4  -33.254304699632     3.693E-04 4.663E-08 1.490E-02 0.000E+00 0.000E+00
 ETOT  5  -33.254147844288     1.569E-04 1.742E-08 5.997E-04 0.000E+00 0.000E+00
 ETOT  6  -33.254150993678    -3.149E-06 1.699E-10 3.473E-05 0.000E+00 0.000E+00
 ETOT  7  -33.254151352188    -3.585E-07 8.232E-12 2.448E-06 0.000E+00 0.000E+00
 ETOT  8  -33.254151303950     4.824E-08 7.518E-13 2.531E-07 0.000E+00 0.000E+00
 ETOT  9  -33.254151300653     3.298E-09 2.762E-13 8.166E-09 0.000E+00 0.000E+00
 ETOT 10  -33.254151300696    -4.291E-11 2.594E-15 1.522E-10 0.000E+00 0.000E+00

 At SCF step   10, etot is converged :
  for the second time, diff in etot=  4.291E-11 < toldfe=  1.000E-08

 Cartesian components of stress tensor (hartree/bohr^3)
  sigma(1 1)=  2.69454028E-02  sigma(3 2)= -6.15466712E-04
  sigma(2 2)=  3.30137178E-02  sigma(3 1)=  2.80916169E-04
  sigma(3 3)=  3.62581294E-02  sigma(2 1)=  9.84965032E-04


 PAW TEST:
 ==== Compensation charge inside spheres ============
 The following values must be close to each other ...
 Compensation charge over spherical meshes =     -0.490048336391221
 Compensation charge over fine fft grid    =     -0.490076649758532

 ==== Results concerning PAW augmentation regions ====

 Total pseudopotential strength Dij (hartree):
   0.75450  -0.02910  -0.00000  -0.00000  -0.00000   0.00000   0.00000   0.00000   0.00002   0.00001   0.00043   0.00002 ...
  -0.02910   0.02908   0.00000   0.00000   0.00000   0.00000   0.00000   0.00000  -0.00000   0.00001   0.00003   0.00000 ...
  -0.00000   0.00000  -0.73512   0.00004  -0.00001  -0.00194  -0.00003   0.00004   0.00000   0.00000  -0.00000   0.00000 ...
  -0.00000   0.00000   0.00004  -0.73444   0.00002  -0.00003  -0.00095   0.00003   0.00000   0.00000   0.00000   0.00000 ...
  -0.00000   0.00000  -0.00001   0.00002  -0.73462   0.00004   0.00003  -0.00162   0.00000   0.00000  -0.00000   0.00000 ...
   0.00000   0.00000  -0.00194  -0.00003   0.00004  -0.74728   0.00002   0.00002   0.00000   0.00000  -0.00000   0.00000 ...
   0.00000   0.00000  -0.00003  -0.00095   0.00003   0.00002  -0.74622   0.00003   0.00000   0.00000   0.00000   0.00000 ...
   0.00000   0.00000   0.00004   0.00003  -0.00162   0.00002   0.00003  -0.74670   0.00000   0.00000   0.00000   0.00000 ...
   0.00002  -0.00000   0.00000   0.00000   0.00000   0.00000   0.00000   0.00000  -0.41311   0.00002  -0.00003  -0.00001 ...
   0.00001   0.00001   0.00000   0.00000   0.00000   0.00000   0.00000   0.00000   0.00002  -0.41250  -0.00001   0.00003 ...
   0.00043   0.00003  -0.00000   0.00000  -0.00000  -0.00000   0.00000   0.00000  -0.00003  -0.00001  -0.41212   0.00001 ...
   0.00002   0.00000   0.00000   0.00000   0.00000   0.00000   0.00000   0.00000  -0.00001   0.00003   0.00001  -0.41222 ...
   ...  only 12  components have been written...

 Total pseudopotential strength Dij (eV):
  20.53088  -0.79193  -0.00000  -0.00000  -0.00000   0.00000   0.00000   0.00000   0.00062   0.00037   0.01171   0.00066 ...
  -0.79193   0.79118   0.00000   0.00000   0.00000   0.00000   0.00000   0.00000  -0.00001   0.00014   0.00073   0.00008 ...
  -0.00000   0.00000 -20.00367   0.00119  -0.00018  -0.05277  -0.00070   0.00108   0.00000   0.00000  -0.00000   0.00000 ...
  -0.00000   0.00000   0.00119 -19.98504   0.00042  -0.00070  -0.02591   0.00069   0.00000   0.00000   0.00000   0.00000 ...
  -0.00000   0.00000  -0.00018   0.00042 -19.98999   0.00108   0.00069  -0.04406   0.00000   0.00000  -0.00000   0.00000 ...
   0.00000   0.00000  -0.05277  -0.00070   0.00108 -20.33459   0.00066   0.00057   0.00000   0.00000  -0.00000   0.00000 ...
   0.00000   0.00000  -0.00070  -0.02591   0.00069   0.00066 -20.30560   0.00080   0.00000   0.00000   0.00000   0.00000 ...
   0.00000   0.00000   0.00108   0.00069  -0.04406   0.00057   0.00080 -20.31874   0.00000   0.00000   0.00000   0.00000 ...
   0.00062  -0.00001   0.00000   0.00000   0.00000   0.00000   0.00000   0.00000 -11.24118   0.00067  -0.00092  -0.00017 ...
   0.00037   0.00014   0.00000   0.00000   0.00000   0.00000   0.00000   0.00000   0.00067 -11.22459  -0.00023   0.00086 ...
   0.01171   0.00073  -0.00000   0.00000  -0.00000  -0.00000   0.00000   0.00000  -0.00092  -0.00023 -11.21425   0.00032 ...
   0.00066   0.00008   0.00000   0.00000   0.00000   0.00000   0.00000   0.00000  -0.00017   0.00086   0.00032 -11.21716 ...
   ...  only 12  components have been written...

 Augmentation waves occupancies Rhoij:
   1.55020   0.55439  -0.00000  -0.00000  -0.00000  -0.00000   0.00000   0.00000   0.01590  -0.00784   0.06498   0.00508 ...
   0.55439   0.34042   0.00000  -0.00000  -0.00000   0.00000  -0.00000  -0.00000   0.00289  -0.00365  -0.04145   0.00186 ...
  -0.00000   0.00000   0.74749   0.01233  -0.01852   0.23496   0.00114  -0.00361  -0.00000  -0.00000   0.00000   0.00000 ...
  -0.00000  -0.00000   0.01233   0.70740  -0.00690   0.00126   0.22595  -0.00165  -0.00000  -0.00000  -0.00000  -0.00000 ...
  -0.00000  -0.00000  -0.01852  -0.00690   0.84897  -0.00401  -0.00249   0.25157  -0.00000   0.00000  -0.00000  -0.00000 ...
  -0.00000   0.00000   0.23496   0.00126  -0.00401   0.07398  -0.00037  -0.00052  -0.00000  -0.00000   0.00000   0.00000 ...
   0.00000  -0.00000   0.00114   0.22595  -0.00249  -0.00037   0.07230  -0.00061   0.00000  -0.00000  -0.00000  -0.00000 ...
   0.00000  -0.00000  -0.00361  -0.00165   0.25157  -0.00052  -0.00061   0.07543  -0.00000   0.00000  -0.00000  -0.00000 ...
   0.01590   0.00289  -0.00000  -0.00000  -0.00000  -0.00000   0.00000  -0.00000   0.00919   0.00448   0.00075   0.00794 ...
  -0.00784  -0.00365  -0.00000  -0.00000   0.00000  -0.00000  -0.00000   0.00000   0.00448   0.00696   0.00276   0.00473 ...
   0.06498  -0.04145   0.00000  -0.00000  -0.00000   0.00000  -0.00000  -0.00000   0.00075   0.00276   0.14532   0.00408 ...
   0.00508   0.00186   0.00000  -0.00000  -0.00000   0.00000  -0.00000  -0.00000   0.00794   0.00473   0.00408   0.00924 ...
   ...  only 12  components have been written...


================================================================================

 ----iterations are completed or convergence reached----

 Mean square residual over all n,k,spin=   7.0466E-16; max=  2.5943E-15
   0.0000  0.0000  0.0000    1  1.37084E-15 kpt; spin; max resid(k); each band:
 1.37E-15 2.64E-16 3.02E-16 4.64E-17 8.80E-17 1.02E-15
   0.3000  0.3000  0.3000    1  2.59430E-15 kpt; spin; max resid(k); each band:
 2.59E-15 1.92E-15 1.87E-16 3.13E-16 1.28E-16 2.24E-16
 reduced coordinates (array xred) for    1 atoms
       0.000000000000      0.000000000000      0.000000000000
 rms dE/dt=  7.9286E-07; max dE/dt=  1.2665E-06; dE/dt below (all hartree)
    1       0.000000377095      0.000000373562      0.000001266541

 cartesian coordinates (angstrom) at end:
    1      0.00000000000000     0.00000000000000     0.00000000000000

 cartesian forces (hartree/bohr) at end:
    1      0.00000000000000     0.00000000000000     0.00000000000000
 frms,max,avg= 0.0000000E+00 0.0000000E+00  -8.978E-08 -7.624E-08 -2.262E-07 h/b

 cartesian forces (eV/Angstrom) at end:
    1      0.00000000000000     0.00000000000000     0.00000000000000
 frms,max,avg= 0.0000000E+00 0.0000000E+00  -4.617E-06 -3.920E-06 -1.163E-05 e/A
 length scales=  3.000000000000  3.500000000000  4.000000000000 bohr
              =  1.587531625770  1.852120230065  2.116708834360 angstroms
 prteigrs : about to open file t94o_EIG
 Fermi (or HOMO) energy (hartree) =   0.41157   Average Vxc (hartree)=  -0.44494
 Eigenvalues (hartree) for nkpt=   2  k points:
 kpt#   1, nband=  6, wtk=  0.50000, kpt=  0.0000  0.0000  0.0000 (reduced coord)
  -1.55527  -0.37623  -0.36794  -0.33598   0.20462   0.40006
      occupation numbers for kpt#   1
   2.00000   2.00000   2.00000   2.00000   2.00000   1.58428
 kpt#   2, nband=  6, wtk=  0.50000, kpt=  0.3000  0.3000  0.3000 (reduced coord)
  -1.49128  -0.45888  -0.42879  -0.37239   0.42308   0.48401
      occupation numbers for kpt#   2
   2.00000   2.00000   2.00000   2.00000   0.41572   0.00000
 Fermi (or HOMO) energy (eV) =  11.19944   Average Vxc (eV)= -12.10743
 Eigenvalues (   eV  ) for nkpt=   2  k points:
 kpt#   1, nband=  6, wtk=  0.50000, kpt=  0.0000  0.0000  0.0000 (reduced coord)
 -42.32114 -10.23780 -10.01212  -9.14260   5.56788  10.88625
 kpt#   2, nband=  6, wtk=  0.50000, kpt=  0.3000  0.3000  0.3000 (reduced coord)
 -40.57970 -12.48681 -11.66788 -10.13314  11.51264  13.17065
 Total charge density [el/Bohr^3]
,     Maximum=    3.7546E-01  at reduced coord.    0.8750    0.0000    0.0000
,Next maximum=    3.7546E-01  at reduced coord.    0.1250    0.0000    0.0000
,     Minimum=    1.3779E-02  at reduced coord.    0.5625    0.4444    0.5000
,Next minimum=    1.3779E-02  at reduced coord.    0.4375    0.5556    0.5000

--------------------------------------------------------------------------------
 Components of total free energy (in Hartree) :

    Kinetic energy  =  1.06069846938318E+01
    Hartree energy  =  3.63128195109089E+00
    XC energy       = -4.54807191122450E+00
    Ewald energy    = -2.85262776194305E+01
    PspCore energy  =  2.16104697573995E+00
    Loc. psp. energy= -1.45196666876482E+01
    Spherical terms = -2.05132383461346E+00
    >>>>> Internal E= -3.32460264322541E+01

    -kT*entropy     = -8.10258989221967E-03
    >>>>>>>>> Etotal= -3.32541290221463E+01

 "Double-counting" decomposition of free energy:
    Band energy     = -4.77729682750259E+00
    Ewald energy    = -2.85262776194305E+01
    PspCore energy  =  2.16104697573995E+00
    Dble-C XC-energy= -2.22851767878555E+00
    Spherical terms =  1.24996439175367E-01
    >>>>> Internal E= -3.32460487108034E+01

    -kT*entropy     = -8.10258989221967E-03
    >>>> Etotal (DC)= -3.32541513006956E+01

  >Total energy in eV           = -9.04890869751589E+02
  >Total DC energy in eV        = -9.04891475981745E+02
--------------------------------------------------------------------------------

 Cartesian components of stress tensor (hartree/bohr^3)
  sigma(1 1)=  2.69454028E-02  sigma(3 2)= -6.15466712E-04
  sigma(2 2)=  3.30137178E-02  sigma(3 1)=  2.80916169E-04
  sigma(3 3)=  3.62581294E-02  sigma(2 1)=  9.84965032E-04

-Cartesian components of stress tensor (GPa)         [Pressure= -9.4360E+02 GPa]
- sigma(1 1)=  7.92760985E+02  sigma(3 2)= -1.81076528E+01
- sigma(2 2)=  9.71296949E+02  sigma(3 1)=  8.26483763E+00
- sigma(3 3)=  1.06675082E+03  sigma(2 1)=  2.89786668E+01

== END DATASET(S) ==============================================================
================================================================================
  
 -outvars: echo values of variables after computation  --------
     acell    3.0000000000E+00  3.5000000000E+00  4.0000000000E+00 Bohr
       amu    4.00780000E+01
      ecut    3.00000000E+00 Hartree
    enunit         2
    etotal   -3.3254151301E+01
    fftalg       400
     fcart    0.0000000000E+00  0.0000000000E+00  0.0000000000E+00
    iprcch         0
      iscf        14
    istwfk      2    0
       ixc         7
       kpt    0.00000000E+00  0.00000000E+00  0.00000000E+00
              3.00000000E-01  3.00000000E-01  3.00000000E-01
P    mkmem         2
     natom         1
     nband         6
  nbdblock         2
     ngfft         8       8      10
   ngfftdg        16      18      20
      nkpt         2
     nline        10
    nnsclo         1
     nstep        25
      nsym         1
     ntime         5
    ntypat         1
       occ    2.000000  2.000000  2.000000  2.000000  2.000000  1.584275
              2.000000  2.000000  2.000000  2.000000  0.415724  0.000000
    occopt         7
    ortalg         1
 pawecutdg    1.50000000E+01 Hartree
  pawmixdg         1
     prtwf         0
     rprim    1.4000000000E+00  0.0000000000E+00  0.0000000000E+00
              0.0000000000E+00  1.4000000000E+00  0.0000000000E+00
              0.0000000000E+00  0.0000000000E+00  1.4000000000E+00
   spgroup         1
    strten    2.6945402751E-02  3.3013717821E-02  3.6258129433E-02
             -6.1546671155E-04  2.8091616858E-04  9.8496503208E-04
    toldfe    1.00000000E-08 Hartree
    tsmear    2.00000000E-02 Hartree
     typat    1
    useylm         1
  wfoptalg         4
       wtk      0.50000    0.50000
     znucl     20.00000

================================================================================

- Total cpu        time (s,m,h):          2.0        0.03      0.001
- Total wall clock time (s,m,h):          2.0        0.03      0.001

- For major independent code sections, cpu and wall times (sec),
- as well as % of the total time and number of calls 

- routine                 cpu     %       wall     %      number of calls 
-                                                          (-1=no count)
- pspini                 0.929  47.2      0.929  47.2              1
- timing timab           0.347  17.6      0.347  17.6             11
- invars2                0.106   5.4      0.106   5.4              1
- vtorho(4)-mkrho-       0.063   3.2      0.063   3.2             30
- fourwf(pot)            0.056   2.8      0.060   3.0            769
- pawinit                0.040   2.0      0.040   2.0              2
- fourdp                 0.033   1.7      0.036   1.8            101
- abinit(2)              0.031   1.6      0.031   1.6              1
- vtorho:mknhat          0.020   1.0      0.019   1.0             10
- xc:pot/=fourdp         0.017   0.9      0.017   0.9             31
- pawdij                 0.015   0.8      0.014   0.7             10
- nonlop(apply)          0.012   0.6      0.007   0.4            769
- pawdenpot              0.011   0.6      0.013   0.7             10
- forces                 0.010   0.5      0.010   0.5             10
- vtorho:ntild+nha       0.010   0.5      0.012   0.6             10
- getghc-other           0.006   0.3      0.013   0.7             -1
- 54   others            0.056   2.8      0.055   2.8

- subtotal               1.762  89.4      1.772  89.9

================================================================================

 Calculation completed.
.Delivered    5 WARNINGs and   1 COMMENTs to log file.
+Overall time at end (sec) : cpu=          2.0  wall=          2.0
