
.Version 5.6.3  of ABINIT 
.(sequential version, prepared for a x86_64_linux_gcc4.3 computer) 

.Copyright (C) 1998-2008 ABINIT group . 
 ABINIT comes with ABSOLUTELY NO WARRANTY.
 It is free software, and you are welcome to redistribute it
 under certain conditions (GNU General Public License,
 see ~abinit/COPYING or http://www.gnu.org/copyleft/gpl.txt).

 ABINIT is a project of the Universite Catholique de Louvain,
 Corning Inc. and other collaborators, see ~abinit/doc/developers/contributors.txt .
 Please read ~abinit/doc/users/acknowledgments.html for suggested
 acknowledgments of the ABINIT effort.
 For more information, see http://www.abinit.org .

.Starting date : Thu  6 Nov 2008.
  
- input  file    -> /home/gonze/ABINIT/ABINITv5.6.3/test_gcc43/5.6.3-private/tests/v4/Input/t95.in
- output file    -> t95.out
- root for input  files -> t95i
- root for output files -> t95o


 Symmetries : the unit cell is not primitive
================================================================================
 Values of the parameters that define the memory need of the present run
   intxc =         0  ionmov =         0    iscf =         5 xclevel =         1
  lmnmax =         2   lnmax =         2   mband =        15  mffmem =         1
P  mgfft =        27   mkmem =         4 mpssoang=         2     mpw =       943
  mqgrid =      3001   natom =         4    nfft =     19683    nkpt =         4
  nloalg =         4  nspden =         1 nspinor =         1  nsppol =         1
    nsym =       192  n1xccc =         0  ntypat =         1  occopt =         7
================================================================================
P This job should need less than                       6.750 Mbytes of memory.
  Rough estimation (10% accuracy) of disk space for files :
  WF disk file :      0.865 Mbytes ; DEN or POT disk file :      0.152 Mbytes.
================================================================================

 -outvars: echo values of preprocessed input variables --------
     acell    7.7925000000E+00  7.7925000000E+00  7.7925000000E+00 Bohr
       amu    2.69815390E+01
      ecut    1.20000000E+01 Hartree
      iscf         5
       ixc         7
       kpt    1.25000000E-01  1.25000000E-01  1.25000000E-01
              3.75000000E-01  1.25000000E-01  1.25000000E-01
              3.75000000E-01  3.75000000E-01  1.25000000E-01
              3.75000000E-01  3.75000000E-01  3.75000000E-01
   kptrlen    3.11700000E+01
    kptopt         1
  kptrlatt    4  0  0   0  4  0   0  0  4
P    mkmem         4
     natom         4
     nband        15
     ngfft        27      27      27
      nkpt         4
     nstep        20
      nsym       192
    ntypat         1
       occ    2.000000  2.000000  2.000000  2.000000  2.000000  2.000000
              0.000000  0.000000  0.000000  0.000000  0.000000  0.000000
              0.000000  0.000000  0.000000
              2.000000  2.000000  2.000000  2.000000  2.000000  2.000000
              0.000000  0.000000  0.000000  0.000000  0.000000  0.000000
              0.000000  0.000000  0.000000
              2.000000  2.000000  2.000000  2.000000  2.000000  2.000000
              0.000000  0.000000  0.000000  0.000000  0.000000  0.000000
              0.000000  0.000000  0.000000
              2.000000  2.000000  2.000000  2.000000  2.000000  2.000000
              0.000000  0.000000  0.000000  0.000000  0.000000  0.000000
              0.000000  0.000000  0.000000
    occopt         7
    prtvha         1
    shiftk    5.00000000E-01  5.00000000E-01  5.00000000E-01
    symrel    1  0  0   0  1  0   0  0  1       1  0  0   0  1  0   0  0  1
              1  0  0   0  1  0   0  0  1       1  0  0   0  1  0   0  0  1
             -1  0  0   0 -1  0   0  0 -1      -1  0  0   0 -1  0   0  0 -1
             -1  0  0   0 -1  0   0  0 -1      -1  0  0   0 -1  0   0  0 -1
             -1  0  0   0  1  0   0  0 -1      -1  0  0   0  1  0   0  0 -1
             -1  0  0   0  1  0   0  0 -1      -1  0  0   0  1  0   0  0 -1
              1  0  0   0 -1  0   0  0  1       1  0  0   0 -1  0   0  0  1
              1  0  0   0 -1  0   0  0  1       1  0  0   0 -1  0   0  0  1
             -1  0  0   0 -1  0   0  0  1      -1  0  0   0 -1  0   0  0  1
             -1  0  0   0 -1  0   0  0  1      -1  0  0   0 -1  0   0  0  1
              1  0  0   0  1  0   0  0 -1       1  0  0   0  1  0   0  0 -1
              1  0  0   0  1  0   0  0 -1       1  0  0   0  1  0   0  0 -1
              1  0  0   0 -1  0   0  0 -1       1  0  0   0 -1  0   0  0 -1
              1  0  0   0 -1  0   0  0 -1       1  0  0   0 -1  0   0  0 -1
             -1  0  0   0  1  0   0  0  1      -1  0  0   0  1  0   0  0  1
             -1  0  0   0  1  0   0  0  1      -1  0  0   0  1  0   0  0  1
              0  1  0   1  0  0   0  0  1       0  1  0   1  0  0   0  0  1
              0  1  0   1  0  0   0  0  1       0  1  0   1  0  0   0  0  1
              0 -1  0  -1  0  0   0  0 -1       0 -1  0  -1  0  0   0  0 -1
              0 -1  0  -1  0  0   0  0 -1       0 -1  0  -1  0  0   0  0 -1
              0 -1  0   1  0  0   0  0 -1       0 -1  0   1  0  0   0  0 -1
              0 -1  0   1  0  0   0  0 -1       0 -1  0   1  0  0   0  0 -1
              0  1  0  -1  0  0   0  0  1       0  1  0  -1  0  0   0  0  1
              0  1  0  -1  0  0   0  0  1       0  1  0  -1  0  0   0  0  1
              0 -1  0  -1  0  0   0  0  1       0 -1  0  -1  0  0   0  0  1
              0 -1  0  -1  0  0   0  0  1       0 -1  0  -1  0  0   0  0  1
              0  1  0   1  0  0   0  0 -1       0  1  0   1  0  0   0  0 -1
              0  1  0   1  0  0   0  0 -1       0  1  0   1  0  0   0  0 -1
              0  1  0  -1  0  0   0  0 -1       0  1  0  -1  0  0   0  0 -1
              0  1  0  -1  0  0   0  0 -1       0  1  0  -1  0  0   0  0 -1
              0 -1  0   1  0  0   0  0  1       0 -1  0   1  0  0   0  0  1
              0 -1  0   1  0  0   0  0  1       0 -1  0   1  0  0   0  0  1
              0  0  1   1  0  0   0  1  0       0  0  1   1  0  0   0  1  0
              0  0  1   1  0  0   0  1  0       0  0  1   1  0  0   0  1  0
              0  0 -1  -1  0  0   0 -1  0       0  0 -1  -1  0  0   0 -1  0
              0  0 -1  -1  0  0   0 -1  0       0  0 -1  -1  0  0   0 -1  0
              0  0 -1   1  0  0   0 -1  0       0  0 -1   1  0  0   0 -1  0
              0  0 -1   1  0  0   0 -1  0       0  0 -1   1  0  0   0 -1  0
              0  0  1  -1  0  0   0  1  0       0  0  1  -1  0  0   0  1  0
              0  0  1  -1  0  0   0  1  0       0  0  1  -1  0  0   0  1  0
              0  0 -1  -1  0  0   0  1  0       0  0 -1  -1  0  0   0  1  0
              0  0 -1  -1  0  0   0  1  0       0  0 -1  -1  0  0   0  1  0
              0  0  1   1  0  0   0 -1  0       0  0  1   1  0  0   0 -1  0
              0  0  1   1  0  0   0 -1  0       0  0  1   1  0  0   0 -1  0
              0  0  1  -1  0  0   0 -1  0       0  0  1  -1  0  0   0 -1  0
              0  0  1  -1  0  0   0 -1  0       0  0  1  -1  0  0   0 -1  0
              0  0 -1   1  0  0   0  1  0       0  0 -1   1  0  0   0  1  0
              0  0 -1   1  0  0   0  1  0       0  0 -1   1  0  0   0  1  0
              1  0  0   0  0  1   0  1  0       1  0  0   0  0  1   0  1  0
              1  0  0   0  0  1   0  1  0       1  0  0   0  0  1   0  1  0
             -1  0  0   0  0 -1   0 -1  0      -1  0  0   0  0 -1   0 -1  0
             -1  0  0   0  0 -1   0 -1  0      -1  0  0   0  0 -1   0 -1  0
             -1  0  0   0  0  1   0 -1  0      -1  0  0   0  0  1   0 -1  0
             -1  0  0   0  0  1   0 -1  0      -1  0  0   0  0  1   0 -1  0
              1  0  0   0  0 -1   0  1  0       1  0  0   0  0 -1   0  1  0
              1  0  0   0  0 -1   0  1  0       1  0  0   0  0 -1   0  1  0
             -1  0  0   0  0 -1   0  1  0      -1  0  0   0  0 -1   0  1  0
             -1  0  0   0  0 -1   0  1  0      -1  0  0   0  0 -1   0  1  0
              1  0  0   0  0  1   0 -1  0       1  0  0   0  0  1   0 -1  0
              1  0  0   0  0  1   0 -1  0       1  0  0   0  0  1   0 -1  0
              1  0  0   0  0 -1   0 -1  0       1  0  0   0  0 -1   0 -1  0
              1  0  0   0  0 -1   0 -1  0       1  0  0   0  0 -1   0 -1  0
             -1  0  0   0  0  1   0  1  0      -1  0  0   0  0  1   0  1  0
             -1  0  0   0  0  1   0  1  0      -1  0  0   0  0  1   0  1  0
              0  1  0   0  0  1   1  0  0       0  1  0   0  0  1   1  0  0
              0  1  0   0  0  1   1  0  0       0  1  0   0  0  1   1  0  0
              0 -1  0   0  0 -1  -1  0  0       0 -1  0   0  0 -1  -1  0  0
              0 -1  0   0  0 -1  -1  0  0       0 -1  0   0  0 -1  -1  0  0
              0 -1  0   0  0  1  -1  0  0       0 -1  0   0  0  1  -1  0  0
              0 -1  0   0  0  1  -1  0  0       0 -1  0   0  0  1  -1  0  0
              0  1  0   0  0 -1   1  0  0       0  1  0   0  0 -1   1  0  0
              0  1  0   0  0 -1   1  0  0       0  1  0   0  0 -1   1  0  0
              0 -1  0   0  0 -1   1  0  0       0 -1  0   0  0 -1   1  0  0
              0 -1  0   0  0 -1   1  0  0       0 -1  0   0  0 -1   1  0  0
              0  1  0   0  0  1  -1  0  0       0  1  0   0  0  1  -1  0  0
              0  1  0   0  0  1  -1  0  0       0  1  0   0  0  1  -1  0  0
              0  1  0   0  0 -1  -1  0  0       0  1  0   0  0 -1  -1  0  0
              0  1  0   0  0 -1  -1  0  0       0  1  0   0  0 -1  -1  0  0
              0 -1  0   0  0  1   1  0  0       0 -1  0   0  0  1   1  0  0
              0 -1  0   0  0  1   1  0  0       0 -1  0   0  0  1   1  0  0
              0  0  1   0  1  0   1  0  0       0  0  1   0  1  0   1  0  0
              0  0  1   0  1  0   1  0  0       0  0  1   0  1  0   1  0  0
              0  0 -1   0 -1  0  -1  0  0       0  0 -1   0 -1  0  -1  0  0
              0  0 -1   0 -1  0  -1  0  0       0  0 -1   0 -1  0  -1  0  0
              0  0 -1   0  1  0  -1  0  0       0  0 -1   0  1  0  -1  0  0
              0  0 -1   0  1  0  -1  0  0       0  0 -1   0  1  0  -1  0  0
              0  0  1   0 -1  0   1  0  0       0  0  1   0 -1  0   1  0  0
              0  0  1   0 -1  0   1  0  0       0  0  1   0 -1  0   1  0  0
              0  0 -1   0 -1  0   1  0  0       0  0 -1   0 -1  0   1  0  0
              0  0 -1   0 -1  0   1  0  0       0  0 -1   0 -1  0   1  0  0
              0  0  1   0  1  0  -1  0  0       0  0  1   0  1  0  -1  0  0
              0  0  1   0  1  0  -1  0  0       0  0  1   0  1  0  -1  0  0
              0  0  1   0 -1  0  -1  0  0       0  0  1   0 -1  0  -1  0  0
              0  0  1   0 -1  0  -1  0  0       0  0  1   0 -1  0  -1  0  0
              0  0 -1   0  1  0   1  0  0       0  0 -1   0  1  0   1  0  0
              0  0 -1   0  1  0   1  0  0       0  0 -1   0  1  0   1  0  0
     tnons    0.0000000  0.0000000  0.0000000     0.5000000  0.5000000  0.0000000
              0.5000000  0.0000000  0.5000000     0.0000000  0.5000000  0.5000000
              0.0000000  0.0000000  0.0000000     0.5000000  0.5000000  0.0000000
              0.5000000  0.0000000  0.5000000     0.0000000  0.5000000  0.5000000
              0.0000000  0.0000000  0.0000000     0.5000000  0.5000000  0.0000000
              0.5000000  0.0000000  0.5000000     0.0000000  0.5000000  0.5000000
              0.0000000  0.0000000  0.0000000     0.5000000  0.5000000  0.0000000
              0.5000000  0.0000000  0.5000000     0.0000000  0.5000000  0.5000000
              0.0000000  0.0000000  0.0000000     0.5000000  0.5000000  0.0000000
              0.5000000  0.0000000  0.5000000     0.0000000  0.5000000  0.5000000
              0.0000000  0.0000000  0.0000000     0.5000000  0.5000000  0.0000000
              0.5000000  0.0000000  0.5000000     0.0000000  0.5000000  0.5000000
              0.0000000  0.0000000  0.0000000     0.5000000  0.5000000  0.0000000
              0.5000000  0.0000000  0.5000000     0.0000000  0.5000000  0.5000000
              0.0000000  0.0000000  0.0000000     0.5000000  0.5000000  0.0000000
              0.5000000  0.0000000  0.5000000     0.0000000  0.5000000  0.5000000
              0.0000000  0.0000000  0.0000000     0.5000000  0.5000000  0.0000000
              0.5000000  0.0000000  0.5000000     0.0000000  0.5000000  0.5000000
              0.0000000  0.0000000  0.0000000     0.5000000  0.5000000  0.0000000
              0.5000000  0.0000000  0.5000000     0.0000000  0.5000000  0.5000000
              0.0000000  0.0000000  0.0000000     0.5000000  0.5000000  0.0000000
              0.5000000  0.0000000  0.5000000     0.0000000  0.5000000  0.5000000
              0.0000000  0.0000000  0.0000000     0.5000000  0.5000000  0.0000000
              0.5000000  0.0000000  0.5000000     0.0000000  0.5000000  0.5000000
              0.0000000  0.0000000  0.0000000     0.5000000  0.5000000  0.0000000
              0.5000000  0.0000000  0.5000000     0.0000000  0.5000000  0.5000000
              0.0000000  0.0000000  0.0000000     0.5000000  0.5000000  0.0000000
              0.5000000  0.0000000  0.5000000     0.0000000  0.5000000  0.5000000
              0.0000000  0.0000000  0.0000000     0.5000000  0.5000000  0.0000000
              0.5000000  0.0000000  0.5000000     0.0000000  0.5000000  0.5000000
              0.0000000  0.0000000  0.0000000     0.5000000  0.5000000  0.0000000
              0.5000000  0.0000000  0.5000000     0.0000000  0.5000000  0.5000000
              0.0000000  0.0000000  0.0000000     0.5000000  0.5000000  0.0000000
              0.5000000  0.0000000  0.5000000     0.0000000  0.5000000  0.5000000
              0.0000000  0.0000000  0.0000000     0.5000000  0.5000000  0.0000000
              0.5000000  0.0000000  0.5000000     0.0000000  0.5000000  0.5000000
              0.0000000  0.0000000  0.0000000     0.5000000  0.5000000  0.0000000
              0.5000000  0.0000000  0.5000000     0.0000000  0.5000000  0.5000000
              0.0000000  0.0000000  0.0000000     0.5000000  0.5000000  0.0000000
              0.5000000  0.0000000  0.5000000     0.0000000  0.5000000  0.5000000
              0.0000000  0.0000000  0.0000000     0.5000000  0.5000000  0.0000000
              0.5000000  0.0000000  0.5000000     0.0000000  0.5000000  0.5000000
              0.0000000  0.0000000  0.0000000     0.5000000  0.5000000  0.0000000
              0.5000000  0.0000000  0.5000000     0.0000000  0.5000000  0.5000000
              0.0000000  0.0000000  0.0000000     0.5000000  0.5000000  0.0000000
              0.5000000  0.0000000  0.5000000     0.0000000  0.5000000  0.5000000
              0.0000000  0.0000000  0.0000000     0.5000000  0.5000000  0.0000000
              0.5000000  0.0000000  0.5000000     0.0000000  0.5000000  0.5000000
              0.0000000  0.0000000  0.0000000     0.5000000  0.5000000  0.0000000
              0.5000000  0.0000000  0.5000000     0.0000000  0.5000000  0.5000000
              0.0000000  0.0000000  0.0000000     0.5000000  0.5000000  0.0000000
              0.5000000  0.0000000  0.5000000     0.0000000  0.5000000  0.5000000
              0.0000000  0.0000000  0.0000000     0.5000000  0.5000000  0.0000000
              0.5000000  0.0000000  0.5000000     0.0000000  0.5000000  0.5000000
              0.0000000  0.0000000  0.0000000     0.5000000  0.5000000  0.0000000
              0.5000000  0.0000000  0.5000000     0.0000000  0.5000000  0.5000000
              0.0000000  0.0000000  0.0000000     0.5000000  0.5000000  0.0000000
              0.5000000  0.0000000  0.5000000     0.0000000  0.5000000  0.5000000
              0.0000000  0.0000000  0.0000000     0.5000000  0.5000000  0.0000000
              0.5000000  0.0000000  0.5000000     0.0000000  0.5000000  0.5000000
              0.0000000  0.0000000  0.0000000     0.5000000  0.5000000  0.0000000
              0.5000000  0.0000000  0.5000000     0.0000000  0.5000000  0.5000000
              0.0000000  0.0000000  0.0000000     0.5000000  0.5000000  0.0000000
              0.5000000  0.0000000  0.5000000     0.0000000  0.5000000  0.5000000
              0.0000000  0.0000000  0.0000000     0.5000000  0.5000000  0.0000000
              0.5000000  0.0000000  0.5000000     0.0000000  0.5000000  0.5000000
              0.0000000  0.0000000  0.0000000     0.5000000  0.5000000  0.0000000
              0.5000000  0.0000000  0.5000000     0.0000000  0.5000000  0.5000000
              0.0000000  0.0000000  0.0000000     0.5000000  0.5000000  0.0000000
              0.5000000  0.0000000  0.5000000     0.0000000  0.5000000  0.5000000
              0.0000000  0.0000000  0.0000000     0.5000000  0.5000000  0.0000000
              0.5000000  0.0000000  0.5000000     0.0000000  0.5000000  0.5000000
              0.0000000  0.0000000  0.0000000     0.5000000  0.5000000  0.0000000
              0.5000000  0.0000000  0.5000000     0.0000000  0.5000000  0.5000000
              0.0000000  0.0000000  0.0000000     0.5000000  0.5000000  0.0000000
              0.5000000  0.0000000  0.5000000     0.0000000  0.5000000  0.5000000
              0.0000000  0.0000000  0.0000000     0.5000000  0.5000000  0.0000000
              0.5000000  0.0000000  0.5000000     0.0000000  0.5000000  0.5000000
              0.0000000  0.0000000  0.0000000     0.5000000  0.5000000  0.0000000
              0.5000000  0.0000000  0.5000000     0.0000000  0.5000000  0.5000000
              0.0000000  0.0000000  0.0000000     0.5000000  0.5000000  0.0000000
              0.5000000  0.0000000  0.5000000     0.0000000  0.5000000  0.5000000
              0.0000000  0.0000000  0.0000000     0.5000000  0.5000000  0.0000000
              0.5000000  0.0000000  0.5000000     0.0000000  0.5000000  0.5000000
              0.0000000  0.0000000  0.0000000     0.5000000  0.5000000  0.0000000
              0.5000000  0.0000000  0.5000000     0.0000000  0.5000000  0.5000000
              0.0000000  0.0000000  0.0000000     0.5000000  0.5000000  0.0000000
              0.5000000  0.0000000  0.5000000     0.0000000  0.5000000  0.5000000
              0.0000000  0.0000000  0.0000000     0.5000000  0.5000000  0.0000000
              0.5000000  0.0000000  0.5000000     0.0000000  0.5000000  0.5000000
              0.0000000  0.0000000  0.0000000     0.5000000  0.5000000  0.0000000
              0.5000000  0.0000000  0.5000000     0.0000000  0.5000000  0.5000000
              0.0000000  0.0000000  0.0000000     0.5000000  0.5000000  0.0000000
              0.5000000  0.0000000  0.5000000     0.0000000  0.5000000  0.5000000
              0.0000000  0.0000000  0.0000000     0.5000000  0.5000000  0.0000000
              0.5000000  0.0000000  0.5000000     0.0000000  0.5000000  0.5000000
    toldfe    1.00000000E-09 Hartree
    tsmear    5.00000000E-03 Hartree
     typat    1  1  1  1
       wtk      0.12500    0.37500    0.37500    0.12500
    xangst    0.0000000000E+00  0.0000000000E+00  0.0000000000E+00
              2.0618066990E+00  2.0618066990E+00  0.0000000000E+00
              2.0618066990E+00  0.0000000000E+00  2.0618066990E+00
              0.0000000000E+00  2.0618066990E+00  2.0618066990E+00
     xcart    0.0000000000E+00  0.0000000000E+00  0.0000000000E+00
              3.8962500000E+00  3.8962500000E+00  0.0000000000E+00
              3.8962500000E+00  0.0000000000E+00  3.8962500000E+00
              0.0000000000E+00  3.8962500000E+00  3.8962500000E+00
      xred    0.0000000000E+00  0.0000000000E+00  0.0000000000E+00
              5.0000000000E-01  5.0000000000E-01  0.0000000000E+00
              5.0000000000E-01  0.0000000000E+00  5.0000000000E-01
              0.0000000000E+00  5.0000000000E-01  5.0000000000E-01
     znucl     13.00000

================================================================================

 chkinp: Checking input parameters for consistency.

================================================================================
== DATASET  1 ==================================================================

 Real(R)+Recip(G) space primitive vectors, cartesian coordinates (Bohr,Bohr^-1):
 R(1)=  7.7925000  0.0000000  0.0000000  G(1)=  0.1283285  0.0000000  0.0000000
 R(2)=  0.0000000  7.7925000  0.0000000  G(2)=  0.0000000  0.1283285  0.0000000
 R(3)=  0.0000000  0.0000000  7.7925000  G(3)=  0.0000000  0.0000000  0.1283285
 Unit cell volume ucvol=  4.7318442E+02 bohr^3
 Angles (23,13,12)=  9.00000000E+01  9.00000000E+01  9.00000000E+01 degrees

 getcut: wavevector=  0.0000  0.0000  0.0000  ngfft=  27  27  27
         ecut(hartree)=     12.000   => boxcut(ratio)=   2.13964

--- Pseudopotential description ------------------------------------------------
- pspini: atom type   1  psp file is /home/gonze/ABINIT/ABINITv5.6.3/test_gcc43/5.6.3-private/tests/Psps_for_tests/13al.psppos
- pspatm: opening atomic psp file    /home/gonze/ABINIT/ABINITv5.6.3/test_gcc43/5.6.3-private/tests/Psps_for_tests/13al.psppos
 Alu, fhi98PP : Troullier-Martins-type, LDA CA PerdewWang, l=1 local
  13.00000   3.00000    990622                znucl, zion, pspdat
    6    7    1    1       493   0.00000      pspcod,pspxc,lmax,lloc,mmax,r2well
    0.00000000000000    0.00000000000000    0.00000000000000   rchrg,fchrg,qchrg
  1.024700          amesh (Hamman grid)
 pspatm: epsatm=   20.11210209
         --- l  ekb(1:nproj) -->
             0    1.659069
 pspatm: atomic psp has been read  and splines computed

   9.65380900E+02                                ecore*ucvol(ha*bohr**3)
--------------------------------------------------------------------------------

P newkpt: treating     15 bands with npw=     943 for ikpt=   1
P newkpt: treating     15 bands with npw=     929 for ikpt=   2
P newkpt: treating     15 bands with npw=     943 for ikpt=   3
P newkpt: treating     15 bands with npw=     943 for ikpt=   4

 setup2: Arith. and geom. avg. npw (full set) are     937.750     937.725

================================================================================

     iter   Etot(hartree)      deltaE(h)  residm     vres2    diffor    maxfor
 ETOT  1  -8.3367133053547    -8.337E+00 1.066E-02 2.071E+00 0.000E+00 0.000E+00
 ETOT  2  -8.3413334885295    -4.620E-03 9.765E-04 6.139E-02 0.000E+00 0.000E+00
 ETOT  3  -8.3413603732388    -2.688E-05 1.189E-04 6.215E-03 0.000E+00 0.000E+00
 ETOT  4  -8.3413608909862    -5.177E-07 1.165E-04 1.801E-04 0.000E+00 0.000E+00
 ETOT  5  -8.3413609232257    -3.224E-08 6.754E-06 3.443E-05 0.000E+00 0.000E+00
 ETOT  6  -8.3413609283824    -5.157E-09 6.745E-06 1.105E-07 0.000E+00 0.000E+00
 ETOT  7  -8.3413609284104    -2.801E-11 4.382E-07 6.734E-10 0.000E+00 0.000E+00
 ETOT  8  -8.3413609284105    -3.020E-14 4.600E-07 6.961E-10 0.000E+00 0.000E+00

 At SCF step    8, etot is converged :
  for the second time, diff in etot=  3.020E-14 < toldfe=  1.000E-09

 Cartesian components of stress tensor (hartree/bohr^3)
  sigma(1 1)=  1.68748663E-05  sigma(3 2)=  0.00000000E+00
  sigma(2 2)=  1.68748663E-05  sigma(3 1)=  0.00000000E+00
  sigma(3 3)=  1.68748663E-05  sigma(2 1)=  0.00000000E+00

================================================================================

 ----iterations are completed or convergence reached----

 Mean square residual over all n,k,spin=   7.6690E-09; max=  4.6000E-07
   0.1250  0.1250  0.1250    1  1.24176E-10 kpt; spin; max resid(k); each band:
 9.73E-18 6.49E-17 5.83E-17 7.61E-17 9.31E-17 7.93E-17 1.26E-16 1.36E-16
 1.07E-16 1.15E-16 1.43E-17 1.44E-17 2.70E-17 6.85E-15 1.24E-10
   0.3750  0.1250  0.1250    1  4.60004E-07 kpt; spin; max resid(k); each band:
 1.48E-17 3.88E-17 6.40E-17 6.40E-17 6.17E-17 6.17E-17 9.36E-17 9.36E-17
 2.94E-17 9.21E-17 9.22E-17 2.69E-17 8.38E-17 2.02E-17 4.60E-07
   0.3750  0.3750  0.1250    1  8.72024E-17 kpt; spin; max resid(k); each band:
 3.22E-17 6.34E-17 6.34E-17 4.47E-17 4.30E-17 5.83E-17 5.83E-17 4.01E-17
 5.00E-17 8.68E-17 8.68E-17 3.71E-17 8.72E-17 8.70E-17 5.24E-17
   0.3750  0.3750  0.3750    1  1.31080E-11 kpt; spin; max resid(k); each band:
 2.08E-17 3.78E-17 3.78E-17 3.78E-17 3.31E-17 3.31E-17 3.31E-17 2.20E-17
 6.53E-17 6.54E-17 6.54E-17 5.39E-15 4.18E-16 5.80E-16 1.31E-11
 reduced coordinates (array xred) for    4 atoms
       0.000000000000      0.000000000000      0.000000000000
       0.500000000000      0.500000000000      0.000000000000
       0.500000000000      0.000000000000      0.500000000000
       0.000000000000      0.500000000000      0.500000000000
 rms dE/dt=  0.0000E+00; max dE/dt=  0.0000E+00; dE/dt below (all hartree)
    1       0.000000000000      0.000000000000      0.000000000000
    2       0.000000000000      0.000000000000      0.000000000000
    3       0.000000000000      0.000000000000      0.000000000000
    4       0.000000000000      0.000000000000      0.000000000000

 cartesian coordinates (angstrom) at end:
    1      0.00000000000000     0.00000000000000     0.00000000000000
    2      2.06180669896879     2.06180669896879     0.00000000000000
    3      2.06180669896879     0.00000000000000     2.06180669896879
    4      0.00000000000000     2.06180669896879     2.06180669896879

 cartesian forces (hartree/bohr) at end:
    1     -0.00000000000000    -0.00000000000000    -0.00000000000000
    2     -0.00000000000000    -0.00000000000000    -0.00000000000000
    3     -0.00000000000000    -0.00000000000000    -0.00000000000000
    4     -0.00000000000000    -0.00000000000000    -0.00000000000000
 frms,max,avg= 0.0000000E+00 0.0000000E+00   0.000E+00  0.000E+00  0.000E+00 h/b

 cartesian forces (eV/Angstrom) at end:
    1     -0.00000000000000    -0.00000000000000    -0.00000000000000
    2     -0.00000000000000    -0.00000000000000    -0.00000000000000
    3     -0.00000000000000    -0.00000000000000    -0.00000000000000
    4     -0.00000000000000    -0.00000000000000    -0.00000000000000
 frms,max,avg= 0.0000000E+00 0.0000000E+00   0.000E+00  0.000E+00  0.000E+00 e/A
 length scales=  7.792500000000  7.792500000000  7.792500000000 bohr
              =  4.123613397938  4.123613397938  4.123613397938 angstroms
 prteigrs : about to open file t95o_EIG
 Fermi (or HOMO) energy (hartree) =   0.10571   Average Vxc (hartree)=  -0.33829
 Eigenvalues (hartree) for nkpt=   4  k points:
 kpt#   1, nband= 15, wtk=  0.12500, kpt=  0.1250  0.1250  0.1250 (reduced coord)
  -0.28712  -0.05203  -0.05203  -0.05203   0.11411   0.11411   0.11411   0.18152
   0.18152   0.18152   0.30023   0.30023   0.30023   0.39602   0.39602
      occupation numbers for kpt#   1
   2.00000   2.00000   2.00000   2.00000   0.01752   0.01752   0.01752   0.00000
   0.00000   0.00000   0.00000   0.00000   0.00000   0.00000   0.00000
 kpt#   2, nband= 15, wtk=  0.37500, kpt=  0.3750  0.1250  0.1250 (reduced coord)
  -0.24737  -0.16826  -0.01246  -0.01246   0.06628   0.06628   0.15219   0.15219
   0.22085   0.22647   0.22647   0.29905   0.30501   0.33992   0.41860
      occupation numbers for kpt#   2
   2.00000   2.00000   2.00000   2.00000   2.00000   2.00000   0.00000   0.00000
   0.00000   0.00000   0.00000   0.00000   0.00000   0.00000   0.00000
 kpt#   3, nband= 15, wtk=  0.37500, kpt=  0.3750  0.3750  0.1250 (reduced coord)
  -0.20768  -0.12867  -0.12867  -0.04987   0.02718   0.10575   0.10575   0.18416
   0.19030   0.26435   0.26435   0.33927   0.34179   0.34179   0.37804
      occupation numbers for kpt#   3
   2.00000   2.00000   2.00000   2.00000   2.00000   0.99124   0.99124   0.00000
   0.00000   0.00000   0.00000   0.00000   0.00000   0.00000   0.00000
 kpt#   4, nband= 15, wtk=  0.12500, kpt=  0.3750  0.3750  0.3750 (reduced coord)
  -0.16804  -0.08918  -0.08918  -0.08918  -0.01018  -0.01018  -0.01018   0.06834
   0.37559   0.37559   0.37559   0.41538   0.41538   0.41538   0.48147
      occupation numbers for kpt#   4
   2.00000   2.00000   2.00000   2.00000   2.00000   2.00000   2.00000   2.00000
   0.00000   0.00000   0.00000   0.00000   0.00000   0.00000   0.00000
 Total charge density [el/Bohr^3]
,     Maximum=    3.1026E-02  at reduced coord.    0.6296    0.6296    0.8519
,Next maximum=    3.1026E-02  at reduced coord.    0.3704    0.6296    0.8519
,     Minimum=    3.4384E-03  at reduced coord.    0.0000    0.0000    0.0000
,Next minimum=    4.0486E-03  at reduced coord.    0.4815    0.4815    0.0000

--------------------------------------------------------------------------------
 Components of total free energy (in Hartree) :

    Kinetic energy  =  3.24012041650026E+00
    Hartree energy  =  1.52350607723874E-02
    XC energy       = -3.14817235375059E+00
    Ewald energy    = -1.05906342424188E+01
    PspCore energy  =  2.04017898341271E+00
    Loc. psp. energy= -1.25683856637029E-01
    NL   psp  energy=  2.29773588845097E-01
    >>>>> Internal E= -8.33918240327594E+00

    -kT*entropy     = -2.17852513451824E-03
    >>>>>>>>> Etotal= -8.34136092841046E+00

 Other information on the energy :
    Total energy(eV)= -2.26979974137783E+02 ; Band energy (Ha)=  -7.2765330085E-01
--------------------------------------------------------------------------------

 Cartesian components of stress tensor (hartree/bohr^3)
  sigma(1 1)=  1.68748663E-05  sigma(3 2)=  0.00000000E+00
  sigma(2 2)=  1.68748663E-05  sigma(3 1)=  0.00000000E+00
  sigma(3 3)=  1.68748663E-05  sigma(2 1)=  0.00000000E+00

-Cartesian components of stress tensor (GPa)         [Pressure= -4.9648E-01 GPa]
- sigma(1 1)=  4.96475623E-01  sigma(3 2)=  0.00000000E+00
- sigma(2 2)=  4.96475623E-01  sigma(3 1)=  0.00000000E+00
- sigma(3 3)=  4.96475623E-01  sigma(2 1)=  0.00000000E+00

== END DATASET(S) ==============================================================
================================================================================
  
 -outvars: echo values of variables after computation  --------
     acell    7.7925000000E+00  7.7925000000E+00  7.7925000000E+00 Bohr
       amu    2.69815390E+01
      ecut    1.20000000E+01 Hartree
    etotal   -8.3413609284E+00
     fcart   -0.0000000000E+00 -0.0000000000E+00 -0.0000000000E+00
             -0.0000000000E+00 -0.0000000000E+00 -0.0000000000E+00
             -0.0000000000E+00 -0.0000000000E+00 -0.0000000000E+00
             -0.0000000000E+00 -0.0000000000E+00 -0.0000000000E+00
      iscf         5
       ixc         7
       kpt    1.25000000E-01  1.25000000E-01  1.25000000E-01
              3.75000000E-01  1.25000000E-01  1.25000000E-01
              3.75000000E-01  3.75000000E-01  1.25000000E-01
              3.75000000E-01  3.75000000E-01  3.75000000E-01
   kptrlen    3.11700000E+01
    kptopt         1
  kptrlatt    4  0  0   0  4  0   0  0  4
P    mkmem         4
     natom         4
     nband        15
     ngfft        27      27      27
      nkpt         4
     nstep        20
      nsym       192
    ntypat         1
       occ    2.000000  2.000000  2.000000  2.000000  0.017519  0.017519
              0.017519  0.000000  0.000000  0.000000  0.000000  0.000000
              0.000000  0.000000  0.000000
              2.000000  2.000000  2.000000  2.000000  2.000000  2.000000
              0.000000  0.000000  0.000000  0.000000  0.000000  0.000000
              0.000000  0.000000  0.000000
              2.000000  2.000000  2.000000  2.000000  2.000000  0.991240
              0.991240  0.000000  0.000000  0.000000  0.000000  0.000000
              0.000000  0.000000  0.000000
              2.000000  2.000000  2.000000  2.000000  2.000000  2.000000
              2.000000  2.000000  0.000000  0.000000  0.000000  0.000000
              0.000000  0.000000  0.000000
    occopt         7
    prtvha         1
    shiftk    5.00000000E-01  5.00000000E-01  5.00000000E-01
    strten    1.6874866272E-05  1.6874866272E-05  1.6874866272E-05
              0.0000000000E+00  0.0000000000E+00  0.0000000000E+00
    symrel    1  0  0   0  1  0   0  0  1       1  0  0   0  1  0   0  0  1
              1  0  0   0  1  0   0  0  1       1  0  0   0  1  0   0  0  1
             -1  0  0   0 -1  0   0  0 -1      -1  0  0   0 -1  0   0  0 -1
             -1  0  0   0 -1  0   0  0 -1      -1  0  0   0 -1  0   0  0 -1
             -1  0  0   0  1  0   0  0 -1      -1  0  0   0  1  0   0  0 -1
             -1  0  0   0  1  0   0  0 -1      -1  0  0   0  1  0   0  0 -1
              1  0  0   0 -1  0   0  0  1       1  0  0   0 -1  0   0  0  1
              1  0  0   0 -1  0   0  0  1       1  0  0   0 -1  0   0  0  1
             -1  0  0   0 -1  0   0  0  1      -1  0  0   0 -1  0   0  0  1
             -1  0  0   0 -1  0   0  0  1      -1  0  0   0 -1  0   0  0  1
              1  0  0   0  1  0   0  0 -1       1  0  0   0  1  0   0  0 -1
              1  0  0   0  1  0   0  0 -1       1  0  0   0  1  0   0  0 -1
              1  0  0   0 -1  0   0  0 -1       1  0  0   0 -1  0   0  0 -1
              1  0  0   0 -1  0   0  0 -1       1  0  0   0 -1  0   0  0 -1
             -1  0  0   0  1  0   0  0  1      -1  0  0   0  1  0   0  0  1
             -1  0  0   0  1  0   0  0  1      -1  0  0   0  1  0   0  0  1
              0  1  0   1  0  0   0  0  1       0  1  0   1  0  0   0  0  1
              0  1  0   1  0  0   0  0  1       0  1  0   1  0  0   0  0  1
              0 -1  0  -1  0  0   0  0 -1       0 -1  0  -1  0  0   0  0 -1
              0 -1  0  -1  0  0   0  0 -1       0 -1  0  -1  0  0   0  0 -1
              0 -1  0   1  0  0   0  0 -1       0 -1  0   1  0  0   0  0 -1
              0 -1  0   1  0  0   0  0 -1       0 -1  0   1  0  0   0  0 -1
              0  1  0  -1  0  0   0  0  1       0  1  0  -1  0  0   0  0  1
              0  1  0  -1  0  0   0  0  1       0  1  0  -1  0  0   0  0  1
              0 -1  0  -1  0  0   0  0  1       0 -1  0  -1  0  0   0  0  1
              0 -1  0  -1  0  0   0  0  1       0 -1  0  -1  0  0   0  0  1
              0  1  0   1  0  0   0  0 -1       0  1  0   1  0  0   0  0 -1
              0  1  0   1  0  0   0  0 -1       0  1  0   1  0  0   0  0 -1
              0  1  0  -1  0  0   0  0 -1       0  1  0  -1  0  0   0  0 -1
              0  1  0  -1  0  0   0  0 -1       0  1  0  -1  0  0   0  0 -1
              0 -1  0   1  0  0   0  0  1       0 -1  0   1  0  0   0  0  1
              0 -1  0   1  0  0   0  0  1       0 -1  0   1  0  0   0  0  1
              0  0  1   1  0  0   0  1  0       0  0  1   1  0  0   0  1  0
              0  0  1   1  0  0   0  1  0       0  0  1   1  0  0   0  1  0
              0  0 -1  -1  0  0   0 -1  0       0  0 -1  -1  0  0   0 -1  0
              0  0 -1  -1  0  0   0 -1  0       0  0 -1  -1  0  0   0 -1  0
              0  0 -1   1  0  0   0 -1  0       0  0 -1   1  0  0   0 -1  0
              0  0 -1   1  0  0   0 -1  0       0  0 -1   1  0  0   0 -1  0
              0  0  1  -1  0  0   0  1  0       0  0  1  -1  0  0   0  1  0
              0  0  1  -1  0  0   0  1  0       0  0  1  -1  0  0   0  1  0
              0  0 -1  -1  0  0   0  1  0       0  0 -1  -1  0  0   0  1  0
              0  0 -1  -1  0  0   0  1  0       0  0 -1  -1  0  0   0  1  0
              0  0  1   1  0  0   0 -1  0       0  0  1   1  0  0   0 -1  0
              0  0  1   1  0  0   0 -1  0       0  0  1   1  0  0   0 -1  0
              0  0  1  -1  0  0   0 -1  0       0  0  1  -1  0  0   0 -1  0
              0  0  1  -1  0  0   0 -1  0       0  0  1  -1  0  0   0 -1  0
              0  0 -1   1  0  0   0  1  0       0  0 -1   1  0  0   0  1  0
              0  0 -1   1  0  0   0  1  0       0  0 -1   1  0  0   0  1  0
              1  0  0   0  0  1   0  1  0       1  0  0   0  0  1   0  1  0
              1  0  0   0  0  1   0  1  0       1  0  0   0  0  1   0  1  0
             -1  0  0   0  0 -1   0 -1  0      -1  0  0   0  0 -1   0 -1  0
             -1  0  0   0  0 -1   0 -1  0      -1  0  0   0  0 -1   0 -1  0
             -1  0  0   0  0  1   0 -1  0      -1  0  0   0  0  1   0 -1  0
             -1  0  0   0  0  1   0 -1  0      -1  0  0   0  0  1   0 -1  0
              1  0  0   0  0 -1   0  1  0       1  0  0   0  0 -1   0  1  0
              1  0  0   0  0 -1   0  1  0       1  0  0   0  0 -1   0  1  0
             -1  0  0   0  0 -1   0  1  0      -1  0  0   0  0 -1   0  1  0
             -1  0  0   0  0 -1   0  1  0      -1  0  0   0  0 -1   0  1  0
              1  0  0   0  0  1   0 -1  0       1  0  0   0  0  1   0 -1  0
              1  0  0   0  0  1   0 -1  0       1  0  0   0  0  1   0 -1  0
              1  0  0   0  0 -1   0 -1  0       1  0  0   0  0 -1   0 -1  0
              1  0  0   0  0 -1   0 -1  0       1  0  0   0  0 -1   0 -1  0
             -1  0  0   0  0  1   0  1  0      -1  0  0   0  0  1   0  1  0
             -1  0  0   0  0  1   0  1  0      -1  0  0   0  0  1   0  1  0
              0  1  0   0  0  1   1  0  0       0  1  0   0  0  1   1  0  0
              0  1  0   0  0  1   1  0  0       0  1  0   0  0  1   1  0  0
              0 -1  0   0  0 -1  -1  0  0       0 -1  0   0  0 -1  -1  0  0
              0 -1  0   0  0 -1  -1  0  0       0 -1  0   0  0 -1  -1  0  0
              0 -1  0   0  0  1  -1  0  0       0 -1  0   0  0  1  -1  0  0
              0 -1  0   0  0  1  -1  0  0       0 -1  0   0  0  1  -1  0  0
              0  1  0   0  0 -1   1  0  0       0  1  0   0  0 -1   1  0  0
              0  1  0   0  0 -1   1  0  0       0  1  0   0  0 -1   1  0  0
              0 -1  0   0  0 -1   1  0  0       0 -1  0   0  0 -1   1  0  0
              0 -1  0   0  0 -1   1  0  0       0 -1  0   0  0 -1   1  0  0
              0  1  0   0  0  1  -1  0  0       0  1  0   0  0  1  -1  0  0
              0  1  0   0  0  1  -1  0  0       0  1  0   0  0  1  -1  0  0
              0  1  0   0  0 -1  -1  0  0       0  1  0   0  0 -1  -1  0  0
              0  1  0   0  0 -1  -1  0  0       0  1  0   0  0 -1  -1  0  0
              0 -1  0   0  0  1   1  0  0       0 -1  0   0  0  1   1  0  0
              0 -1  0   0  0  1   1  0  0       0 -1  0   0  0  1   1  0  0
              0  0  1   0  1  0   1  0  0       0  0  1   0  1  0   1  0  0
              0  0  1   0  1  0   1  0  0       0  0  1   0  1  0   1  0  0
              0  0 -1   0 -1  0  -1  0  0       0  0 -1   0 -1  0  -1  0  0
              0  0 -1   0 -1  0  -1  0  0       0  0 -1   0 -1  0  -1  0  0
              0  0 -1   0  1  0  -1  0  0       0  0 -1   0  1  0  -1  0  0
              0  0 -1   0  1  0  -1  0  0       0  0 -1   0  1  0  -1  0  0
              0  0  1   0 -1  0   1  0  0       0  0  1   0 -1  0   1  0  0
              0  0  1   0 -1  0   1  0  0       0  0  1   0 -1  0   1  0  0
              0  0 -1   0 -1  0   1  0  0       0  0 -1   0 -1  0   1  0  0
              0  0 -1   0 -1  0   1  0  0       0  0 -1   0 -1  0   1  0  0
              0  0  1   0  1  0  -1  0  0       0  0  1   0  1  0  -1  0  0
              0  0  1   0  1  0  -1  0  0       0  0  1   0  1  0  -1  0  0
              0  0  1   0 -1  0  -1  0  0       0  0  1   0 -1  0  -1  0  0
              0  0  1   0 -1  0  -1  0  0       0  0  1   0 -1  0  -1  0  0
              0  0 -1   0  1  0   1  0  0       0  0 -1   0  1  0   1  0  0
              0  0 -1   0  1  0   1  0  0       0  0 -1   0  1  0   1  0  0
     tnons    0.0000000  0.0000000  0.0000000     0.5000000  0.5000000  0.0000000
              0.5000000  0.0000000  0.5000000     0.0000000  0.5000000  0.5000000
              0.0000000  0.0000000  0.0000000     0.5000000  0.5000000  0.0000000
              0.5000000  0.0000000  0.5000000     0.0000000  0.5000000  0.5000000
              0.0000000  0.0000000  0.0000000     0.5000000  0.5000000  0.0000000
              0.5000000  0.0000000  0.5000000     0.0000000  0.5000000  0.5000000
              0.0000000  0.0000000  0.0000000     0.5000000  0.5000000  0.0000000
              0.5000000  0.0000000  0.5000000     0.0000000  0.5000000  0.5000000
              0.0000000  0.0000000  0.0000000     0.5000000  0.5000000  0.0000000
              0.5000000  0.0000000  0.5000000     0.0000000  0.5000000  0.5000000
              0.0000000  0.0000000  0.0000000     0.5000000  0.5000000  0.0000000
              0.5000000  0.0000000  0.5000000     0.0000000  0.5000000  0.5000000
              0.0000000  0.0000000  0.0000000     0.5000000  0.5000000  0.0000000
              0.5000000  0.0000000  0.5000000     0.0000000  0.5000000  0.5000000
              0.0000000  0.0000000  0.0000000     0.5000000  0.5000000  0.0000000
              0.5000000  0.0000000  0.5000000     0.0000000  0.5000000  0.5000000
              0.0000000  0.0000000  0.0000000     0.5000000  0.5000000  0.0000000
              0.5000000  0.0000000  0.5000000     0.0000000  0.5000000  0.5000000
              0.0000000  0.0000000  0.0000000     0.5000000  0.5000000  0.0000000
              0.5000000  0.0000000  0.5000000     0.0000000  0.5000000  0.5000000
              0.0000000  0.0000000  0.0000000     0.5000000  0.5000000  0.0000000
              0.5000000  0.0000000  0.5000000     0.0000000  0.5000000  0.5000000
              0.0000000  0.0000000  0.0000000     0.5000000  0.5000000  0.0000000
              0.5000000  0.0000000  0.5000000     0.0000000  0.5000000  0.5000000
              0.0000000  0.0000000  0.0000000     0.5000000  0.5000000  0.0000000
              0.5000000  0.0000000  0.5000000     0.0000000  0.5000000  0.5000000
              0.0000000  0.0000000  0.0000000     0.5000000  0.5000000  0.0000000
              0.5000000  0.0000000  0.5000000     0.0000000  0.5000000  0.5000000
              0.0000000  0.0000000  0.0000000     0.5000000  0.5000000  0.0000000
              0.5000000  0.0000000  0.5000000     0.0000000  0.5000000  0.5000000
              0.0000000  0.0000000  0.0000000     0.5000000  0.5000000  0.0000000
              0.5000000  0.0000000  0.5000000     0.0000000  0.5000000  0.5000000
              0.0000000  0.0000000  0.0000000     0.5000000  0.5000000  0.0000000
              0.5000000  0.0000000  0.5000000     0.0000000  0.5000000  0.5000000
              0.0000000  0.0000000  0.0000000     0.5000000  0.5000000  0.0000000
              0.5000000  0.0000000  0.5000000     0.0000000  0.5000000  0.5000000
              0.0000000  0.0000000  0.0000000     0.5000000  0.5000000  0.0000000
              0.5000000  0.0000000  0.5000000     0.0000000  0.5000000  0.5000000
              0.0000000  0.0000000  0.0000000     0.5000000  0.5000000  0.0000000
              0.5000000  0.0000000  0.5000000     0.0000000  0.5000000  0.5000000
              0.0000000  0.0000000  0.0000000     0.5000000  0.5000000  0.0000000
              0.5000000  0.0000000  0.5000000     0.0000000  0.5000000  0.5000000
              0.0000000  0.0000000  0.0000000     0.5000000  0.5000000  0.0000000
              0.5000000  0.0000000  0.5000000     0.0000000  0.5000000  0.5000000
              0.0000000  0.0000000  0.0000000     0.5000000  0.5000000  0.0000000
              0.5000000  0.0000000  0.5000000     0.0000000  0.5000000  0.5000000
              0.0000000  0.0000000  0.0000000     0.5000000  0.5000000  0.0000000
              0.5000000  0.0000000  0.5000000     0.0000000  0.5000000  0.5000000
              0.0000000  0.0000000  0.0000000     0.5000000  0.5000000  0.0000000
              0.5000000  0.0000000  0.5000000     0.0000000  0.5000000  0.5000000
              0.0000000  0.0000000  0.0000000     0.5000000  0.5000000  0.0000000
              0.5000000  0.0000000  0.5000000     0.0000000  0.5000000  0.5000000
              0.0000000  0.0000000  0.0000000     0.5000000  0.5000000  0.0000000
              0.5000000  0.0000000  0.5000000     0.0000000  0.5000000  0.5000000
              0.0000000  0.0000000  0.0000000     0.5000000  0.5000000  0.0000000
              0.5000000  0.0000000  0.5000000     0.0000000  0.5000000  0.5000000
              0.0000000  0.0000000  0.0000000     0.5000000  0.5000000  0.0000000
              0.5000000  0.0000000  0.5000000     0.0000000  0.5000000  0.5000000
              0.0000000  0.0000000  0.0000000     0.5000000  0.5000000  0.0000000
              0.5000000  0.0000000  0.5000000     0.0000000  0.5000000  0.5000000
              0.0000000  0.0000000  0.0000000     0.5000000  0.5000000  0.0000000
              0.5000000  0.0000000  0.5000000     0.0000000  0.5000000  0.5000000
              0.0000000  0.0000000  0.0000000     0.5000000  0.5000000  0.0000000
              0.5000000  0.0000000  0.5000000     0.0000000  0.5000000  0.5000000
              0.0000000  0.0000000  0.0000000     0.5000000  0.5000000  0.0000000
              0.5000000  0.0000000  0.5000000     0.0000000  0.5000000  0.5000000
              0.0000000  0.0000000  0.0000000     0.5000000  0.5000000  0.0000000
              0.5000000  0.0000000  0.5000000     0.0000000  0.5000000  0.5000000
              0.0000000  0.0000000  0.0000000     0.5000000  0.5000000  0.0000000
              0.5000000  0.0000000  0.5000000     0.0000000  0.5000000  0.5000000
              0.0000000  0.0000000  0.0000000     0.5000000  0.5000000  0.0000000
              0.5000000  0.0000000  0.5000000     0.0000000  0.5000000  0.5000000
              0.0000000  0.0000000  0.0000000     0.5000000  0.5000000  0.0000000
              0.5000000  0.0000000  0.5000000     0.0000000  0.5000000  0.5000000
              0.0000000  0.0000000  0.0000000     0.5000000  0.5000000  0.0000000
              0.5000000  0.0000000  0.5000000     0.0000000  0.5000000  0.5000000
              0.0000000  0.0000000  0.0000000     0.5000000  0.5000000  0.0000000
              0.5000000  0.0000000  0.5000000     0.0000000  0.5000000  0.5000000
              0.0000000  0.0000000  0.0000000     0.5000000  0.5000000  0.0000000
              0.5000000  0.0000000  0.5000000     0.0000000  0.5000000  0.5000000
              0.0000000  0.0000000  0.0000000     0.5000000  0.5000000  0.0000000
              0.5000000  0.0000000  0.5000000     0.0000000  0.5000000  0.5000000
              0.0000000  0.0000000  0.0000000     0.5000000  0.5000000  0.0000000
              0.5000000  0.0000000  0.5000000     0.0000000  0.5000000  0.5000000
              0.0000000  0.0000000  0.0000000     0.5000000  0.5000000  0.0000000
              0.5000000  0.0000000  0.5000000     0.0000000  0.5000000  0.5000000
              0.0000000  0.0000000  0.0000000     0.5000000  0.5000000  0.0000000
              0.5000000  0.0000000  0.5000000     0.0000000  0.5000000  0.5000000
              0.0000000  0.0000000  0.0000000     0.5000000  0.5000000  0.0000000
              0.5000000  0.0000000  0.5000000     0.0000000  0.5000000  0.5000000
              0.0000000  0.0000000  0.0000000     0.5000000  0.5000000  0.0000000
              0.5000000  0.0000000  0.5000000     0.0000000  0.5000000  0.5000000
              0.0000000  0.0000000  0.0000000     0.5000000  0.5000000  0.0000000
              0.5000000  0.0000000  0.5000000     0.0000000  0.5000000  0.5000000
              0.0000000  0.0000000  0.0000000     0.5000000  0.5000000  0.0000000
              0.5000000  0.0000000  0.5000000     0.0000000  0.5000000  0.5000000
    toldfe    1.00000000E-09 Hartree
    tsmear    5.00000000E-03 Hartree
     typat    1  1  1  1
       wtk      0.12500    0.37500    0.37500    0.12500
    xangst    2.2890652695E-16  2.2890652695E-16  2.2890652695E-16
              2.0618066990E+00  2.0618066990E+00  2.2890652695E-16
              2.0618066990E+00  2.2890652695E-16  2.0618066990E+00
              2.2890652695E-16  2.0618066990E+00  2.0618066990E+00
     xcart    4.3257064597E-16  4.3257064597E-16  4.3257064597E-16
              3.8962500000E+00  3.8962500000E+00  4.3257064597E-16
              3.8962500000E+00  4.3257064597E-16  3.8962500000E+00
              4.3257064597E-16  3.8962500000E+00  3.8962500000E+00
      xred    5.5511151231E-17  5.5511151231E-17  5.5511151231E-17
              5.0000000000E-01  5.0000000000E-01  5.5511151231E-17
              5.0000000000E-01  5.5511151231E-17  5.0000000000E-01
              5.5511151231E-17  5.0000000000E-01  5.0000000000E-01
     znucl     13.00000

================================================================================

- Total cpu        time (s,m,h):          5.5        0.09      0.002
- Total wall clock time (s,m,h):          5.5        0.09      0.002

- For major independent code sections, cpu and wall times (sec),
- as well as % of the total time and number of calls 

- routine                 cpu     %       wall     %      number of calls 
-                                                          (-1=no count)
- fourwf(pot)            3.018  55.2      3.035  55.5           2735
- projbd                 0.499   9.1      0.496   9.1           4270
- timing timab           0.341   6.2      0.341   6.2             11
- nonlop(apply)          0.185   3.4      0.182   3.3           2735
- pspini                 0.151   2.8      0.151   2.8              1
- vtorho(4)-mkrho-       0.137   2.5      0.133   2.4             16
- fourwf(den)            0.136   2.5      0.142   2.6            224
- vtowfk(ssdiag)         0.124   2.3      0.124   2.3             -1
- invars2                0.105   1.9      0.106   1.9              1
- vtowfk(contrib)        0.089   1.6      0.088   1.6             32
- forces                 0.087   1.6      0.087   1.6              8
- status                 0.079   1.4      0.085   1.6            719
- getghc-other           0.059   1.1      0.062   1.1             -1
- xc:pot/=fourdp         0.033   0.6      0.034   0.6              9
- symrhg(no FFT)         0.032   0.6      0.032   0.6              8
- abinit(2)              0.031   0.6      0.031   0.6              1
- fourdp                 0.029   0.5      0.032   0.6             41
- 53   others            0.108   2.0      0.113   2.1

- subtotal               5.243  95.9      5.274  96.4

================================================================================

 Calculation completed.
.Delivered    0 WARNINGs and   1 COMMENTs to log file.
+Overall time at end (sec) : cpu=          5.5  wall=          5.5
