
.Version 5.6.3  of ABINIT 
.(sequential version, prepared for a x86_64_linux_gcc4.3 computer) 

.Copyright (C) 1998-2008 ABINIT group . 
 ABINIT comes with ABSOLUTELY NO WARRANTY.
 It is free software, and you are welcome to redistribute it
 under certain conditions (GNU General Public License,
 see ~abinit/COPYING or http://www.gnu.org/copyleft/gpl.txt).

 ABINIT is a project of the Universite Catholique de Louvain,
 Corning Inc. and other collaborators, see ~abinit/doc/developers/contributors.txt .
 Please read ~abinit/doc/users/acknowledgments.html for suggested
 acknowledgments of the ABINIT effort.
 For more information, see http://www.abinit.org .

.Starting date : Thu  6 Nov 2008.
  
- input  file    -> /home/gonze/ABINIT/ABINITv5.6.3/test_gcc43/5.6.3-private/tests/v4/Input/t96.in
- output file    -> t96.out
- root for input  files -> t96i
- root for output files -> t96o


 Symmetries : the unit cell is not primitive
================================================================================
 Values of the parameters that define the memory need of the present run
   intxc =         0  ionmov =         0    iscf =         5 xclevel =         0
  lmnmax =         1   lnmax =         1   mband =         1  mffmem =         1
P  mgfft =        27   mkmem =         1 mpssoang=         1     mpw =       463
  mqgrid =      3001   natom =         4    nfft =     19683    nkpt =         1
  nloalg =         4  nspden =         1 nspinor =         1  nsppol =         1
    nsym =       192  n1xccc =      2501  ntypat =         1  occopt =         7
================================================================================
P This job should need less than                       5.899 Mbytes of memory.
  Rough estimation (10% accuracy) of disk space for files :
  WF disk file :      0.009 Mbytes ; DEN or POT disk file :      0.152 Mbytes.
================================================================================

 -outvars: echo values of preprocessed input variables --------
     acell    7.7925000000E+00  7.7925000000E+00  7.7925000000E+00 Bohr
       amu    2.69815390E+01
      ecut    1.20000000E+01 Hartree
      iscf         5
    istwfk      2
       ixc         0
P    mkmem         1
     natom         4
     nband         1
     ngfft        27      27      27
      nkpt         1
     nstep        20
      nsym       192
    ntypat         1
       occ    1.000000
    occopt         7
  positron         1
    symrel    1  0  0   0  1  0   0  0  1       1  0  0   0  1  0   0  0  1
              1  0  0   0  1  0   0  0  1       1  0  0   0  1  0   0  0  1
             -1  0  0   0 -1  0   0  0 -1      -1  0  0   0 -1  0   0  0 -1
             -1  0  0   0 -1  0   0  0 -1      -1  0  0   0 -1  0   0  0 -1
             -1  0  0   0  1  0   0  0 -1      -1  0  0   0  1  0   0  0 -1
             -1  0  0   0  1  0   0  0 -1      -1  0  0   0  1  0   0  0 -1
              1  0  0   0 -1  0   0  0  1       1  0  0   0 -1  0   0  0  1
              1  0  0   0 -1  0   0  0  1       1  0  0   0 -1  0   0  0  1
             -1  0  0   0 -1  0   0  0  1      -1  0  0   0 -1  0   0  0  1
             -1  0  0   0 -1  0   0  0  1      -1  0  0   0 -1  0   0  0  1
              1  0  0   0  1  0   0  0 -1       1  0  0   0  1  0   0  0 -1
              1  0  0   0  1  0   0  0 -1       1  0  0   0  1  0   0  0 -1
              1  0  0   0 -1  0   0  0 -1       1  0  0   0 -1  0   0  0 -1
              1  0  0   0 -1  0   0  0 -1       1  0  0   0 -1  0   0  0 -1
             -1  0  0   0  1  0   0  0  1      -1  0  0   0  1  0   0  0  1
             -1  0  0   0  1  0   0  0  1      -1  0  0   0  1  0   0  0  1
              0  1  0   1  0  0   0  0  1       0  1  0   1  0  0   0  0  1
              0  1  0   1  0  0   0  0  1       0  1  0   1  0  0   0  0  1
              0 -1  0  -1  0  0   0  0 -1       0 -1  0  -1  0  0   0  0 -1
              0 -1  0  -1  0  0   0  0 -1       0 -1  0  -1  0  0   0  0 -1
              0 -1  0   1  0  0   0  0 -1       0 -1  0   1  0  0   0  0 -1
              0 -1  0   1  0  0   0  0 -1       0 -1  0   1  0  0   0  0 -1
              0  1  0  -1  0  0   0  0  1       0  1  0  -1  0  0   0  0  1
              0  1  0  -1  0  0   0  0  1       0  1  0  -1  0  0   0  0  1
              0 -1  0  -1  0  0   0  0  1       0 -1  0  -1  0  0   0  0  1
              0 -1  0  -1  0  0   0  0  1       0 -1  0  -1  0  0   0  0  1
              0  1  0   1  0  0   0  0 -1       0  1  0   1  0  0   0  0 -1
              0  1  0   1  0  0   0  0 -1       0  1  0   1  0  0   0  0 -1
              0  1  0  -1  0  0   0  0 -1       0  1  0  -1  0  0   0  0 -1
              0  1  0  -1  0  0   0  0 -1       0  1  0  -1  0  0   0  0 -1
              0 -1  0   1  0  0   0  0  1       0 -1  0   1  0  0   0  0  1
              0 -1  0   1  0  0   0  0  1       0 -1  0   1  0  0   0  0  1
              0  0  1   1  0  0   0  1  0       0  0  1   1  0  0   0  1  0
              0  0  1   1  0  0   0  1  0       0  0  1   1  0  0   0  1  0
              0  0 -1  -1  0  0   0 -1  0       0  0 -1  -1  0  0   0 -1  0
              0  0 -1  -1  0  0   0 -1  0       0  0 -1  -1  0  0   0 -1  0
              0  0 -1   1  0  0   0 -1  0       0  0 -1   1  0  0   0 -1  0
              0  0 -1   1  0  0   0 -1  0       0  0 -1   1  0  0   0 -1  0
              0  0  1  -1  0  0   0  1  0       0  0  1  -1  0  0   0  1  0
              0  0  1  -1  0  0   0  1  0       0  0  1  -1  0  0   0  1  0
              0  0 -1  -1  0  0   0  1  0       0  0 -1  -1  0  0   0  1  0
              0  0 -1  -1  0  0   0  1  0       0  0 -1  -1  0  0   0  1  0
              0  0  1   1  0  0   0 -1  0       0  0  1   1  0  0   0 -1  0
              0  0  1   1  0  0   0 -1  0       0  0  1   1  0  0   0 -1  0
              0  0  1  -1  0  0   0 -1  0       0  0  1  -1  0  0   0 -1  0
              0  0  1  -1  0  0   0 -1  0       0  0  1  -1  0  0   0 -1  0
              0  0 -1   1  0  0   0  1  0       0  0 -1   1  0  0   0  1  0
              0  0 -1   1  0  0   0  1  0       0  0 -1   1  0  0   0  1  0
              1  0  0   0  0  1   0  1  0       1  0  0   0  0  1   0  1  0
              1  0  0   0  0  1   0  1  0       1  0  0   0  0  1   0  1  0
             -1  0  0   0  0 -1   0 -1  0      -1  0  0   0  0 -1   0 -1  0
             -1  0  0   0  0 -1   0 -1  0      -1  0  0   0  0 -1   0 -1  0
             -1  0  0   0  0  1   0 -1  0      -1  0  0   0  0  1   0 -1  0
             -1  0  0   0  0  1   0 -1  0      -1  0  0   0  0  1   0 -1  0
              1  0  0   0  0 -1   0  1  0       1  0  0   0  0 -1   0  1  0
              1  0  0   0  0 -1   0  1  0       1  0  0   0  0 -1   0  1  0
             -1  0  0   0  0 -1   0  1  0      -1  0  0   0  0 -1   0  1  0
             -1  0  0   0  0 -1   0  1  0      -1  0  0   0  0 -1   0  1  0
              1  0  0   0  0  1   0 -1  0       1  0  0   0  0  1   0 -1  0
              1  0  0   0  0  1   0 -1  0       1  0  0   0  0  1   0 -1  0
              1  0  0   0  0 -1   0 -1  0       1  0  0   0  0 -1   0 -1  0
              1  0  0   0  0 -1   0 -1  0       1  0  0   0  0 -1   0 -1  0
             -1  0  0   0  0  1   0  1  0      -1  0  0   0  0  1   0  1  0
             -1  0  0   0  0  1   0  1  0      -1  0  0   0  0  1   0  1  0
              0  1  0   0  0  1   1  0  0       0  1  0   0  0  1   1  0  0
              0  1  0   0  0  1   1  0  0       0  1  0   0  0  1   1  0  0
              0 -1  0   0  0 -1  -1  0  0       0 -1  0   0  0 -1  -1  0  0
              0 -1  0   0  0 -1  -1  0  0       0 -1  0   0  0 -1  -1  0  0
              0 -1  0   0  0  1  -1  0  0       0 -1  0   0  0  1  -1  0  0
              0 -1  0   0  0  1  -1  0  0       0 -1  0   0  0  1  -1  0  0
              0  1  0   0  0 -1   1  0  0       0  1  0   0  0 -1   1  0  0
              0  1  0   0  0 -1   1  0  0       0  1  0   0  0 -1   1  0  0
              0 -1  0   0  0 -1   1  0  0       0 -1  0   0  0 -1   1  0  0
              0 -1  0   0  0 -1   1  0  0       0 -1  0   0  0 -1   1  0  0
              0  1  0   0  0  1  -1  0  0       0  1  0   0  0  1  -1  0  0
              0  1  0   0  0  1  -1  0  0       0  1  0   0  0  1  -1  0  0
              0  1  0   0  0 -1  -1  0  0       0  1  0   0  0 -1  -1  0  0
              0  1  0   0  0 -1  -1  0  0       0  1  0   0  0 -1  -1  0  0
              0 -1  0   0  0  1   1  0  0       0 -1  0   0  0  1   1  0  0
              0 -1  0   0  0  1   1  0  0       0 -1  0   0  0  1   1  0  0
              0  0  1   0  1  0   1  0  0       0  0  1   0  1  0   1  0  0
              0  0  1   0  1  0   1  0  0       0  0  1   0  1  0   1  0  0
              0  0 -1   0 -1  0  -1  0  0       0  0 -1   0 -1  0  -1  0  0
              0  0 -1   0 -1  0  -1  0  0       0  0 -1   0 -1  0  -1  0  0
              0  0 -1   0  1  0  -1  0  0       0  0 -1   0  1  0  -1  0  0
              0  0 -1   0  1  0  -1  0  0       0  0 -1   0  1  0  -1  0  0
              0  0  1   0 -1  0   1  0  0       0  0  1   0 -1  0   1  0  0
              0  0  1   0 -1  0   1  0  0       0  0  1   0 -1  0   1  0  0
              0  0 -1   0 -1  0   1  0  0       0  0 -1   0 -1  0   1  0  0
              0  0 -1   0 -1  0   1  0  0       0  0 -1   0 -1  0   1  0  0
              0  0  1   0  1  0  -1  0  0       0  0  1   0  1  0  -1  0  0
              0  0  1   0  1  0  -1  0  0       0  0  1   0  1  0  -1  0  0
              0  0  1   0 -1  0  -1  0  0       0  0  1   0 -1  0  -1  0  0
              0  0  1   0 -1  0  -1  0  0       0  0  1   0 -1  0  -1  0  0
              0  0 -1   0  1  0   1  0  0       0  0 -1   0  1  0   1  0  0
              0  0 -1   0  1  0   1  0  0       0  0 -1   0  1  0   1  0  0
     tnons    0.0000000  0.0000000  0.0000000     0.5000000  0.5000000  0.0000000
              0.5000000  0.0000000  0.5000000     0.0000000  0.5000000  0.5000000
              0.0000000  0.0000000  0.0000000     0.5000000  0.5000000  0.0000000
              0.5000000  0.0000000  0.5000000     0.0000000  0.5000000  0.5000000
              0.0000000  0.0000000  0.0000000     0.5000000  0.5000000  0.0000000
              0.5000000  0.0000000  0.5000000     0.0000000  0.5000000  0.5000000
              0.0000000  0.0000000  0.0000000     0.5000000  0.5000000  0.0000000
              0.5000000  0.0000000  0.5000000     0.0000000  0.5000000  0.5000000
              0.0000000  0.0000000  0.0000000     0.5000000  0.5000000  0.0000000
              0.5000000  0.0000000  0.5000000     0.0000000  0.5000000  0.5000000
              0.0000000  0.0000000  0.0000000     0.5000000  0.5000000  0.0000000
              0.5000000  0.0000000  0.5000000     0.0000000  0.5000000  0.5000000
              0.0000000  0.0000000  0.0000000     0.5000000  0.5000000  0.0000000
              0.5000000  0.0000000  0.5000000     0.0000000  0.5000000  0.5000000
              0.0000000  0.0000000  0.0000000     0.5000000  0.5000000  0.0000000
              0.5000000  0.0000000  0.5000000     0.0000000  0.5000000  0.5000000
              0.0000000  0.0000000  0.0000000     0.5000000  0.5000000  0.0000000
              0.5000000  0.0000000  0.5000000     0.0000000  0.5000000  0.5000000
              0.0000000  0.0000000  0.0000000     0.5000000  0.5000000  0.0000000
              0.5000000  0.0000000  0.5000000     0.0000000  0.5000000  0.5000000
              0.0000000  0.0000000  0.0000000     0.5000000  0.5000000  0.0000000
              0.5000000  0.0000000  0.5000000     0.0000000  0.5000000  0.5000000
              0.0000000  0.0000000  0.0000000     0.5000000  0.5000000  0.0000000
              0.5000000  0.0000000  0.5000000     0.0000000  0.5000000  0.5000000
              0.0000000  0.0000000  0.0000000     0.5000000  0.5000000  0.0000000
              0.5000000  0.0000000  0.5000000     0.0000000  0.5000000  0.5000000
              0.0000000  0.0000000  0.0000000     0.5000000  0.5000000  0.0000000
              0.5000000  0.0000000  0.5000000     0.0000000  0.5000000  0.5000000
              0.0000000  0.0000000  0.0000000     0.5000000  0.5000000  0.0000000
              0.5000000  0.0000000  0.5000000     0.0000000  0.5000000  0.5000000
              0.0000000  0.0000000  0.0000000     0.5000000  0.5000000  0.0000000
              0.5000000  0.0000000  0.5000000     0.0000000  0.5000000  0.5000000
              0.0000000  0.0000000  0.0000000     0.5000000  0.5000000  0.0000000
              0.5000000  0.0000000  0.5000000     0.0000000  0.5000000  0.5000000
              0.0000000  0.0000000  0.0000000     0.5000000  0.5000000  0.0000000
              0.5000000  0.0000000  0.5000000     0.0000000  0.5000000  0.5000000
              0.0000000  0.0000000  0.0000000     0.5000000  0.5000000  0.0000000
              0.5000000  0.0000000  0.5000000     0.0000000  0.5000000  0.5000000
              0.0000000  0.0000000  0.0000000     0.5000000  0.5000000  0.0000000
              0.5000000  0.0000000  0.5000000     0.0000000  0.5000000  0.5000000
              0.0000000  0.0000000  0.0000000     0.5000000  0.5000000  0.0000000
              0.5000000  0.0000000  0.5000000     0.0000000  0.5000000  0.5000000
              0.0000000  0.0000000  0.0000000     0.5000000  0.5000000  0.0000000
              0.5000000  0.0000000  0.5000000     0.0000000  0.5000000  0.5000000
              0.0000000  0.0000000  0.0000000     0.5000000  0.5000000  0.0000000
              0.5000000  0.0000000  0.5000000     0.0000000  0.5000000  0.5000000
              0.0000000  0.0000000  0.0000000     0.5000000  0.5000000  0.0000000
              0.5000000  0.0000000  0.5000000     0.0000000  0.5000000  0.5000000
              0.0000000  0.0000000  0.0000000     0.5000000  0.5000000  0.0000000
              0.5000000  0.0000000  0.5000000     0.0000000  0.5000000  0.5000000
              0.0000000  0.0000000  0.0000000     0.5000000  0.5000000  0.0000000
              0.5000000  0.0000000  0.5000000     0.0000000  0.5000000  0.5000000
              0.0000000  0.0000000  0.0000000     0.5000000  0.5000000  0.0000000
              0.5000000  0.0000000  0.5000000     0.0000000  0.5000000  0.5000000
              0.0000000  0.0000000  0.0000000     0.5000000  0.5000000  0.0000000
              0.5000000  0.0000000  0.5000000     0.0000000  0.5000000  0.5000000
              0.0000000  0.0000000  0.0000000     0.5000000  0.5000000  0.0000000
              0.5000000  0.0000000  0.5000000     0.0000000  0.5000000  0.5000000
              0.0000000  0.0000000  0.0000000     0.5000000  0.5000000  0.0000000
              0.5000000  0.0000000  0.5000000     0.0000000  0.5000000  0.5000000
              0.0000000  0.0000000  0.0000000     0.5000000  0.5000000  0.0000000
              0.5000000  0.0000000  0.5000000     0.0000000  0.5000000  0.5000000
              0.0000000  0.0000000  0.0000000     0.5000000  0.5000000  0.0000000
              0.5000000  0.0000000  0.5000000     0.0000000  0.5000000  0.5000000
              0.0000000  0.0000000  0.0000000     0.5000000  0.5000000  0.0000000
              0.5000000  0.0000000  0.5000000     0.0000000  0.5000000  0.5000000
              0.0000000  0.0000000  0.0000000     0.5000000  0.5000000  0.0000000
              0.5000000  0.0000000  0.5000000     0.0000000  0.5000000  0.5000000
              0.0000000  0.0000000  0.0000000     0.5000000  0.5000000  0.0000000
              0.5000000  0.0000000  0.5000000     0.0000000  0.5000000  0.5000000
              0.0000000  0.0000000  0.0000000     0.5000000  0.5000000  0.0000000
              0.5000000  0.0000000  0.5000000     0.0000000  0.5000000  0.5000000
              0.0000000  0.0000000  0.0000000     0.5000000  0.5000000  0.0000000
              0.5000000  0.0000000  0.5000000     0.0000000  0.5000000  0.5000000
              0.0000000  0.0000000  0.0000000     0.5000000  0.5000000  0.0000000
              0.5000000  0.0000000  0.5000000     0.0000000  0.5000000  0.5000000
              0.0000000  0.0000000  0.0000000     0.5000000  0.5000000  0.0000000
              0.5000000  0.0000000  0.5000000     0.0000000  0.5000000  0.5000000
              0.0000000  0.0000000  0.0000000     0.5000000  0.5000000  0.0000000
              0.5000000  0.0000000  0.5000000     0.0000000  0.5000000  0.5000000
              0.0000000  0.0000000  0.0000000     0.5000000  0.5000000  0.0000000
              0.5000000  0.0000000  0.5000000     0.0000000  0.5000000  0.5000000
              0.0000000  0.0000000  0.0000000     0.5000000  0.5000000  0.0000000
              0.5000000  0.0000000  0.5000000     0.0000000  0.5000000  0.5000000
              0.0000000  0.0000000  0.0000000     0.5000000  0.5000000  0.0000000
              0.5000000  0.0000000  0.5000000     0.0000000  0.5000000  0.5000000
              0.0000000  0.0000000  0.0000000     0.5000000  0.5000000  0.0000000
              0.5000000  0.0000000  0.5000000     0.0000000  0.5000000  0.5000000
              0.0000000  0.0000000  0.0000000     0.5000000  0.5000000  0.0000000
              0.5000000  0.0000000  0.5000000     0.0000000  0.5000000  0.5000000
              0.0000000  0.0000000  0.0000000     0.5000000  0.5000000  0.0000000
              0.5000000  0.0000000  0.5000000     0.0000000  0.5000000  0.5000000
              0.0000000  0.0000000  0.0000000     0.5000000  0.5000000  0.0000000
              0.5000000  0.0000000  0.5000000     0.0000000  0.5000000  0.5000000
              0.0000000  0.0000000  0.0000000     0.5000000  0.5000000  0.0000000
              0.5000000  0.0000000  0.5000000     0.0000000  0.5000000  0.5000000
    toldfe    1.00000000E-09 Hartree
    tsmear    5.00000000E-03 Hartree
     typat    1  1  1  1
    xangst    0.0000000000E+00  0.0000000000E+00  0.0000000000E+00
              2.0618066990E+00  2.0618066990E+00  0.0000000000E+00
              2.0618066990E+00  0.0000000000E+00  2.0618066990E+00
              0.0000000000E+00  2.0618066990E+00  2.0618066990E+00
     xcart    0.0000000000E+00  0.0000000000E+00  0.0000000000E+00
              3.8962500000E+00  3.8962500000E+00  0.0000000000E+00
              3.8962500000E+00  0.0000000000E+00  3.8962500000E+00
              0.0000000000E+00  3.8962500000E+00  3.8962500000E+00
      xred    0.0000000000E+00  0.0000000000E+00  0.0000000000E+00
              5.0000000000E-01  5.0000000000E-01  0.0000000000E+00
              5.0000000000E-01  0.0000000000E+00  5.0000000000E-01
              0.0000000000E+00  5.0000000000E-01  5.0000000000E-01
     znucl     13.00000

================================================================================

 chkinp: Checking input parameters for consistency.

================================================================================
== DATASET  1 ==================================================================

 Real(R)+Recip(G) space primitive vectors, cartesian coordinates (Bohr,Bohr^-1):
 R(1)=  7.7925000  0.0000000  0.0000000  G(1)=  0.1283285  0.0000000  0.0000000
 R(2)=  0.0000000  7.7925000  0.0000000  G(2)=  0.0000000  0.1283285  0.0000000
 R(3)=  0.0000000  0.0000000  7.7925000  G(3)=  0.0000000  0.0000000  0.1283285
 Unit cell volume ucvol=  4.7318442E+02 bohr^3
 Angles (23,13,12)=  9.00000000E+01  9.00000000E+01  9.00000000E+01 degrees

 getcut: wavevector=  0.0000  0.0000  0.0000  ngfft=  27  27  27
         ecut(hartree)=     12.000   => boxcut(ratio)=   2.13964

--- Pseudopotential description ------------------------------------------------
- pspini: atom type   1  psp file is /home/gonze/ABINIT/ABINITv5.6.3/test_gcc43/5.6.3-private/tests/Psps_for_tests/13alpos.psppos
- pspatm: opening atomic psp file    /home/gonze/ABINIT/ABINITv5.6.3/test_gcc43/5.6.3-private/tests/Psps_for_tests/13alpos.psppos
 Alu, fhi98PP : Troullier-Martins-type, LDA CA PerdewWang, l=1 local
  13.00000   3.00000    990622                znucl, zion, pspdat
    6    0    0    0       493   0.00000      pspcod,pspxc,lmax,lloc,mmax,r2well
    4.50000000000000    1.00000000000000    0.00000000000000   rchrg,fchrg,qchrg
  1.024700          amesh (Hamman grid)
 Note: local psp for atom with Z= 13.0
 pspatm: epsatm=   -2.09134322
         --- l  ekb(1:nproj) -->
 pspatm: atomic psp has been read  and splines computed

  -1.00384475E+02                                ecore*ucvol(ha*bohr**3)
--------------------------------------------------------------------------------

P newkpt: treating      1 bands with npw=     463 for ikpt=   1

 setup2: Arith. and geom. avg. npw (full set) are     925.000     925.000

================================================================================

     iter   Etot(hartree)      deltaE(h)  residm     vres2
 ETOT  1  -10.955313941091    -1.096E+01 2.319E-03 5.236E+01
 ETOT  2  -10.955584455419    -2.705E-04 1.881E-09 3.061E+00
 ETOT  3  -10.955664681606    -8.023E-05 3.575E-09 6.504E+00
 ETOT  4  -10.955679864531    -1.518E-05 2.484E-09 1.642E-01
 ETOT  5  -10.955679839040     2.549E-08 8.291E-11 9.682E-03
 ETOT  6  -10.955679330871     5.082E-07 5.183E-10 1.655E-03
 ETOT  7  -10.955677688295     1.643E-06 5.895E-11 1.611E-05
 ETOT  8  -10.955677667306     2.099E-08 1.310E-11 5.041E-07
 ETOT  9  -10.955677635242     3.206E-08 2.731E-14 6.117E-07
 ETOT 10  -10.955677641506    -6.264E-09 3.908E-14 7.297E-09
 ETOT 11  -10.955677638250     3.255E-09 2.366E-15 2.183E-10
 ETOT 12  -10.955677637623     6.269E-10 6.399E-17 2.034E-10
 ETOT 13  -10.955677637331     2.920E-10 3.848E-17 1.106E-11

 At SCF step   13, etot is converged :
  for the second time, diff in etot=  2.920E-10 < toldfe=  1.000E-09

 Lifetime EQ 1 (in psec)       =  1.71424500E+02
 Lifetime EQ 5 (in psec)       =  1.78391482E+02
 Annihilation rate valence EQ1 =  5.27865221E+00
 Annihilation rate core    EQ1 =  5.54819685E-01
 Annihilation rate valence EQ5 =  5.36052972E+00
 Annihilation rate core    EQ5 =  2.45119107E-01
 Number of core electrons      =  3.99989900E+01
 Number of valence electrons   =  1.20000000E+01
 Number of positrons           =  1.00000000E+00
 Number of real space points on which density is provided =  19683
================================================================================

 ----iterations are completed or convergence reached----

 Mean square residual over all n,k,spin=   3.8477E-17; max=  3.8477E-17
   0.0000  0.0000  0.0000    1  3.84770E-17 kpt; spin; max resid(k); each band:
 3.85E-17
 reduced coordinates (array xred) for    4 atoms
       0.000000000000      0.000000000000      0.000000000000
       0.500000000000      0.500000000000      0.000000000000
       0.500000000000      0.000000000000      0.500000000000
       0.000000000000      0.500000000000      0.500000000000
 rms dE/dt=  0.0000E+00; max dE/dt=  0.0000E+00; dE/dt below (all hartree)
    1       0.000000000000      0.000000000000      0.000000000000
    2       0.000000000000      0.000000000000      0.000000000000
    3       0.000000000000      0.000000000000      0.000000000000
    4       0.000000000000      0.000000000000      0.000000000000

 cartesian coordinates (angstrom) at end:
    1      0.00000000000000     0.00000000000000     0.00000000000000
    2      2.06180669896879     2.06180669896879     0.00000000000000
    3      2.06180669896879     0.00000000000000     2.06180669896879
    4      0.00000000000000     2.06180669896879     2.06180669896879

 cartesian forces (hartree/bohr) at end:
    1     -0.00000000000000    -0.00000000000000    -0.00000000000000
    2     -0.00000000000000    -0.00000000000000    -0.00000000000000
    3     -0.00000000000000    -0.00000000000000    -0.00000000000000
    4     -0.00000000000000    -0.00000000000000    -0.00000000000000
 frms,max,avg= 0.0000000E+00 0.0000000E+00   0.000E+00  0.000E+00  0.000E+00 h/b

 cartesian forces (eV/Angstrom) at end:
    1     -0.00000000000000    -0.00000000000000    -0.00000000000000
    2     -0.00000000000000    -0.00000000000000    -0.00000000000000
    3     -0.00000000000000    -0.00000000000000    -0.00000000000000
    4     -0.00000000000000    -0.00000000000000    -0.00000000000000
 frms,max,avg= 0.0000000E+00 0.0000000E+00   0.000E+00  0.000E+00  0.000E+00 e/A
 length scales=  7.792500000000  7.792500000000  7.792500000000 bohr
              =  4.123613397938  4.123613397938  4.123613397938 angstroms
 prteigrs : about to open file t96o_EIG
 Fermi (or HOMO) energy (hartree) =  -0.14913   Average Vxc (hartree)=   0.00000
 Eigenvalues (hartree) for nkpt=   1  k points:
 kpt#   1, nband=  1, wtk=  1.00000, kpt=  0.0000  0.0000  0.0000 (reduced coord)
  -0.14913
      occupation numbers for kpt#   1
   1.00000
 Total charge density [el/Bohr^3]
,     Maximum=    4.0367E-03  at reduced coord.    0.0000    0.0000    0.5185
,Next maximum=    4.0367E-03  at reduced coord.    0.0000    0.0000    0.4815
,     Minimum=    1.3634E-05  at reduced coord.    0.0000    0.0000    0.0000
,Next minimum=    1.9077E-05  at reduced coord.    0.4815    0.4815    0.0000

--------------------------------------------------------------------------------
 Components of total free energy (in Hartree) :

    Kinetic energy  =  5.93309961259192E-02
    Hartree energy  =  9.40837752308495E-04
    XC energy       =  0.00000000000000E+00
    Ewald energy    = -1.05906342424188E+01
    PspCore energy  = -2.12146620372533E-01
    Loc. psp. energy= -2.10347660500606E-01
    NL   psp  energy=  0.00000000000000E+00
    >>>>> Internal E= -1.09528566894137E+01

    -kT*entropy     = -2.82094791773897E-03
    >>>>>>>>> Etotal= -1.09556776373314E+01

 Other information on the energy :
    Total energy(eV)= -2.98119149635843E+02 ; Band energy (Ha)=  -1.4913498808E-01
--------------------------------------------------------------------------------

== END DATASET(S) ==============================================================
================================================================================
  
 -outvars: echo values of variables after computation  --------
     acell    7.7925000000E+00  7.7925000000E+00  7.7925000000E+00 Bohr
       amu    2.69815390E+01
      ecut    1.20000000E+01 Hartree
    etotal   -1.0955677637E+01
     fcart   -0.0000000000E+00 -0.0000000000E+00 -0.0000000000E+00
             -0.0000000000E+00 -0.0000000000E+00 -0.0000000000E+00
             -0.0000000000E+00 -0.0000000000E+00 -0.0000000000E+00
             -0.0000000000E+00 -0.0000000000E+00 -0.0000000000E+00
      iscf         5
    istwfk      2
       ixc         0
P    mkmem         1
     natom         4
     nband         1
     ngfft        27      27      27
      nkpt         1
     nstep        20
      nsym       192
    ntypat         1
       occ    1.000000
    occopt         7
  positron         1
    strten    0.0000000000E+00  0.0000000000E+00  0.0000000000E+00
              0.0000000000E+00  0.0000000000E+00  0.0000000000E+00
    symrel    1  0  0   0  1  0   0  0  1       1  0  0   0  1  0   0  0  1
              1  0  0   0  1  0   0  0  1       1  0  0   0  1  0   0  0  1
             -1  0  0   0 -1  0   0  0 -1      -1  0  0   0 -1  0   0  0 -1
             -1  0  0   0 -1  0   0  0 -1      -1  0  0   0 -1  0   0  0 -1
             -1  0  0   0  1  0   0  0 -1      -1  0  0   0  1  0   0  0 -1
             -1  0  0   0  1  0   0  0 -1      -1  0  0   0  1  0   0  0 -1
              1  0  0   0 -1  0   0  0  1       1  0  0   0 -1  0   0  0  1
              1  0  0   0 -1  0   0  0  1       1  0  0   0 -1  0   0  0  1
             -1  0  0   0 -1  0   0  0  1      -1  0  0   0 -1  0   0  0  1
             -1  0  0   0 -1  0   0  0  1      -1  0  0   0 -1  0   0  0  1
              1  0  0   0  1  0   0  0 -1       1  0  0   0  1  0   0  0 -1
              1  0  0   0  1  0   0  0 -1       1  0  0   0  1  0   0  0 -1
              1  0  0   0 -1  0   0  0 -1       1  0  0   0 -1  0   0  0 -1
              1  0  0   0 -1  0   0  0 -1       1  0  0   0 -1  0   0  0 -1
             -1  0  0   0  1  0   0  0  1      -1  0  0   0  1  0   0  0  1
             -1  0  0   0  1  0   0  0  1      -1  0  0   0  1  0   0  0  1
              0  1  0   1  0  0   0  0  1       0  1  0   1  0  0   0  0  1
              0  1  0   1  0  0   0  0  1       0  1  0   1  0  0   0  0  1
              0 -1  0  -1  0  0   0  0 -1       0 -1  0  -1  0  0   0  0 -1
              0 -1  0  -1  0  0   0  0 -1       0 -1  0  -1  0  0   0  0 -1
              0 -1  0   1  0  0   0  0 -1       0 -1  0   1  0  0   0  0 -1
              0 -1  0   1  0  0   0  0 -1       0 -1  0   1  0  0   0  0 -1
              0  1  0  -1  0  0   0  0  1       0  1  0  -1  0  0   0  0  1
              0  1  0  -1  0  0   0  0  1       0  1  0  -1  0  0   0  0  1
              0 -1  0  -1  0  0   0  0  1       0 -1  0  -1  0  0   0  0  1
              0 -1  0  -1  0  0   0  0  1       0 -1  0  -1  0  0   0  0  1
              0  1  0   1  0  0   0  0 -1       0  1  0   1  0  0   0  0 -1
              0  1  0   1  0  0   0  0 -1       0  1  0   1  0  0   0  0 -1
              0  1  0  -1  0  0   0  0 -1       0  1  0  -1  0  0   0  0 -1
              0  1  0  -1  0  0   0  0 -1       0  1  0  -1  0  0   0  0 -1
              0 -1  0   1  0  0   0  0  1       0 -1  0   1  0  0   0  0  1
              0 -1  0   1  0  0   0  0  1       0 -1  0   1  0  0   0  0  1
              0  0  1   1  0  0   0  1  0       0  0  1   1  0  0   0  1  0
              0  0  1   1  0  0   0  1  0       0  0  1   1  0  0   0  1  0
              0  0 -1  -1  0  0   0 -1  0       0  0 -1  -1  0  0   0 -1  0
              0  0 -1  -1  0  0   0 -1  0       0  0 -1  -1  0  0   0 -1  0
              0  0 -1   1  0  0   0 -1  0       0  0 -1   1  0  0   0 -1  0
              0  0 -1   1  0  0   0 -1  0       0  0 -1   1  0  0   0 -1  0
              0  0  1  -1  0  0   0  1  0       0  0  1  -1  0  0   0  1  0
              0  0  1  -1  0  0   0  1  0       0  0  1  -1  0  0   0  1  0
              0  0 -1  -1  0  0   0  1  0       0  0 -1  -1  0  0   0  1  0
              0  0 -1  -1  0  0   0  1  0       0  0 -1  -1  0  0   0  1  0
              0  0  1   1  0  0   0 -1  0       0  0  1   1  0  0   0 -1  0
              0  0  1   1  0  0   0 -1  0       0  0  1   1  0  0   0 -1  0
              0  0  1  -1  0  0   0 -1  0       0  0  1  -1  0  0   0 -1  0
              0  0  1  -1  0  0   0 -1  0       0  0  1  -1  0  0   0 -1  0
              0  0 -1   1  0  0   0  1  0       0  0 -1   1  0  0   0  1  0
              0  0 -1   1  0  0   0  1  0       0  0 -1   1  0  0   0  1  0
              1  0  0   0  0  1   0  1  0       1  0  0   0  0  1   0  1  0
              1  0  0   0  0  1   0  1  0       1  0  0   0  0  1   0  1  0
             -1  0  0   0  0 -1   0 -1  0      -1  0  0   0  0 -1   0 -1  0
             -1  0  0   0  0 -1   0 -1  0      -1  0  0   0  0 -1   0 -1  0
             -1  0  0   0  0  1   0 -1  0      -1  0  0   0  0  1   0 -1  0
             -1  0  0   0  0  1   0 -1  0      -1  0  0   0  0  1   0 -1  0
              1  0  0   0  0 -1   0  1  0       1  0  0   0  0 -1   0  1  0
              1  0  0   0  0 -1   0  1  0       1  0  0   0  0 -1   0  1  0
             -1  0  0   0  0 -1   0  1  0      -1  0  0   0  0 -1   0  1  0
             -1  0  0   0  0 -1   0  1  0      -1  0  0   0  0 -1   0  1  0
              1  0  0   0  0  1   0 -1  0       1  0  0   0  0  1   0 -1  0
              1  0  0   0  0  1   0 -1  0       1  0  0   0  0  1   0 -1  0
              1  0  0   0  0 -1   0 -1  0       1  0  0   0  0 -1   0 -1  0
              1  0  0   0  0 -1   0 -1  0       1  0  0   0  0 -1   0 -1  0
             -1  0  0   0  0  1   0  1  0      -1  0  0   0  0  1   0  1  0
             -1  0  0   0  0  1   0  1  0      -1  0  0   0  0  1   0  1  0
              0  1  0   0  0  1   1  0  0       0  1  0   0  0  1   1  0  0
              0  1  0   0  0  1   1  0  0       0  1  0   0  0  1   1  0  0
              0 -1  0   0  0 -1  -1  0  0       0 -1  0   0  0 -1  -1  0  0
              0 -1  0   0  0 -1  -1  0  0       0 -1  0   0  0 -1  -1  0  0
              0 -1  0   0  0  1  -1  0  0       0 -1  0   0  0  1  -1  0  0
              0 -1  0   0  0  1  -1  0  0       0 -1  0   0  0  1  -1  0  0
              0  1  0   0  0 -1   1  0  0       0  1  0   0  0 -1   1  0  0
              0  1  0   0  0 -1   1  0  0       0  1  0   0  0 -1   1  0  0
              0 -1  0   0  0 -1   1  0  0       0 -1  0   0  0 -1   1  0  0
              0 -1  0   0  0 -1   1  0  0       0 -1  0   0  0 -1   1  0  0
              0  1  0   0  0  1  -1  0  0       0  1  0   0  0  1  -1  0  0
              0  1  0   0  0  1  -1  0  0       0  1  0   0  0  1  -1  0  0
              0  1  0   0  0 -1  -1  0  0       0  1  0   0  0 -1  -1  0  0
              0  1  0   0  0 -1  -1  0  0       0  1  0   0  0 -1  -1  0  0
              0 -1  0   0  0  1   1  0  0       0 -1  0   0  0  1   1  0  0
              0 -1  0   0  0  1   1  0  0       0 -1  0   0  0  1   1  0  0
              0  0  1   0  1  0   1  0  0       0  0  1   0  1  0   1  0  0
              0  0  1   0  1  0   1  0  0       0  0  1   0  1  0   1  0  0
              0  0 -1   0 -1  0  -1  0  0       0  0 -1   0 -1  0  -1  0  0
              0  0 -1   0 -1  0  -1  0  0       0  0 -1   0 -1  0  -1  0  0
              0  0 -1   0  1  0  -1  0  0       0  0 -1   0  1  0  -1  0  0
              0  0 -1   0  1  0  -1  0  0       0  0 -1   0  1  0  -1  0  0
              0  0  1   0 -1  0   1  0  0       0  0  1   0 -1  0   1  0  0
              0  0  1   0 -1  0   1  0  0       0  0  1   0 -1  0   1  0  0
              0  0 -1   0 -1  0   1  0  0       0  0 -1   0 -1  0   1  0  0
              0  0 -1   0 -1  0   1  0  0       0  0 -1   0 -1  0   1  0  0
              0  0  1   0  1  0  -1  0  0       0  0  1   0  1  0  -1  0  0
              0  0  1   0  1  0  -1  0  0       0  0  1   0  1  0  -1  0  0
              0  0  1   0 -1  0  -1  0  0       0  0  1   0 -1  0  -1  0  0
              0  0  1   0 -1  0  -1  0  0       0  0  1   0 -1  0  -1  0  0
              0  0 -1   0  1  0   1  0  0       0  0 -1   0  1  0   1  0  0
              0  0 -1   0  1  0   1  0  0       0  0 -1   0  1  0   1  0  0
     tnons    0.0000000  0.0000000  0.0000000     0.5000000  0.5000000  0.0000000
              0.5000000  0.0000000  0.5000000     0.0000000  0.5000000  0.5000000
              0.0000000  0.0000000  0.0000000     0.5000000  0.5000000  0.0000000
              0.5000000  0.0000000  0.5000000     0.0000000  0.5000000  0.5000000
              0.0000000  0.0000000  0.0000000     0.5000000  0.5000000  0.0000000
              0.5000000  0.0000000  0.5000000     0.0000000  0.5000000  0.5000000
              0.0000000  0.0000000  0.0000000     0.5000000  0.5000000  0.0000000
              0.5000000  0.0000000  0.5000000     0.0000000  0.5000000  0.5000000
              0.0000000  0.0000000  0.0000000     0.5000000  0.5000000  0.0000000
              0.5000000  0.0000000  0.5000000     0.0000000  0.5000000  0.5000000
              0.0000000  0.0000000  0.0000000     0.5000000  0.5000000  0.0000000
              0.5000000  0.0000000  0.5000000     0.0000000  0.5000000  0.5000000
              0.0000000  0.0000000  0.0000000     0.5000000  0.5000000  0.0000000
              0.5000000  0.0000000  0.5000000     0.0000000  0.5000000  0.5000000
              0.0000000  0.0000000  0.0000000     0.5000000  0.5000000  0.0000000
              0.5000000  0.0000000  0.5000000     0.0000000  0.5000000  0.5000000
              0.0000000  0.0000000  0.0000000     0.5000000  0.5000000  0.0000000
              0.5000000  0.0000000  0.5000000     0.0000000  0.5000000  0.5000000
              0.0000000  0.0000000  0.0000000     0.5000000  0.5000000  0.0000000
              0.5000000  0.0000000  0.5000000     0.0000000  0.5000000  0.5000000
              0.0000000  0.0000000  0.0000000     0.5000000  0.5000000  0.0000000
              0.5000000  0.0000000  0.5000000     0.0000000  0.5000000  0.5000000
              0.0000000  0.0000000  0.0000000     0.5000000  0.5000000  0.0000000
              0.5000000  0.0000000  0.5000000     0.0000000  0.5000000  0.5000000
              0.0000000  0.0000000  0.0000000     0.5000000  0.5000000  0.0000000
              0.5000000  0.0000000  0.5000000     0.0000000  0.5000000  0.5000000
              0.0000000  0.0000000  0.0000000     0.5000000  0.5000000  0.0000000
              0.5000000  0.0000000  0.5000000     0.0000000  0.5000000  0.5000000
              0.0000000  0.0000000  0.0000000     0.5000000  0.5000000  0.0000000
              0.5000000  0.0000000  0.5000000     0.0000000  0.5000000  0.5000000
              0.0000000  0.0000000  0.0000000     0.5000000  0.5000000  0.0000000
              0.5000000  0.0000000  0.5000000     0.0000000  0.5000000  0.5000000
              0.0000000  0.0000000  0.0000000     0.5000000  0.5000000  0.0000000
              0.5000000  0.0000000  0.5000000     0.0000000  0.5000000  0.5000000
              0.0000000  0.0000000  0.0000000     0.5000000  0.5000000  0.0000000
              0.5000000  0.0000000  0.5000000     0.0000000  0.5000000  0.5000000
              0.0000000  0.0000000  0.0000000     0.5000000  0.5000000  0.0000000
              0.5000000  0.0000000  0.5000000     0.0000000  0.5000000  0.5000000
              0.0000000  0.0000000  0.0000000     0.5000000  0.5000000  0.0000000
              0.5000000  0.0000000  0.5000000     0.0000000  0.5000000  0.5000000
              0.0000000  0.0000000  0.0000000     0.5000000  0.5000000  0.0000000
              0.5000000  0.0000000  0.5000000     0.0000000  0.5000000  0.5000000
              0.0000000  0.0000000  0.0000000     0.5000000  0.5000000  0.0000000
              0.5000000  0.0000000  0.5000000     0.0000000  0.5000000  0.5000000
              0.0000000  0.0000000  0.0000000     0.5000000  0.5000000  0.0000000
              0.5000000  0.0000000  0.5000000     0.0000000  0.5000000  0.5000000
              0.0000000  0.0000000  0.0000000     0.5000000  0.5000000  0.0000000
              0.5000000  0.0000000  0.5000000     0.0000000  0.5000000  0.5000000
              0.0000000  0.0000000  0.0000000     0.5000000  0.5000000  0.0000000
              0.5000000  0.0000000  0.5000000     0.0000000  0.5000000  0.5000000
              0.0000000  0.0000000  0.0000000     0.5000000  0.5000000  0.0000000
              0.5000000  0.0000000  0.5000000     0.0000000  0.5000000  0.5000000
              0.0000000  0.0000000  0.0000000     0.5000000  0.5000000  0.0000000
              0.5000000  0.0000000  0.5000000     0.0000000  0.5000000  0.5000000
              0.0000000  0.0000000  0.0000000     0.5000000  0.5000000  0.0000000
              0.5000000  0.0000000  0.5000000     0.0000000  0.5000000  0.5000000
              0.0000000  0.0000000  0.0000000     0.5000000  0.5000000  0.0000000
              0.5000000  0.0000000  0.5000000     0.0000000  0.5000000  0.5000000
              0.0000000  0.0000000  0.0000000     0.5000000  0.5000000  0.0000000
              0.5000000  0.0000000  0.5000000     0.0000000  0.5000000  0.5000000
              0.0000000  0.0000000  0.0000000     0.5000000  0.5000000  0.0000000
              0.5000000  0.0000000  0.5000000     0.0000000  0.5000000  0.5000000
              0.0000000  0.0000000  0.0000000     0.5000000  0.5000000  0.0000000
              0.5000000  0.0000000  0.5000000     0.0000000  0.5000000  0.5000000
              0.0000000  0.0000000  0.0000000     0.5000000  0.5000000  0.0000000
              0.5000000  0.0000000  0.5000000     0.0000000  0.5000000  0.5000000
              0.0000000  0.0000000  0.0000000     0.5000000  0.5000000  0.0000000
              0.5000000  0.0000000  0.5000000     0.0000000  0.5000000  0.5000000
              0.0000000  0.0000000  0.0000000     0.5000000  0.5000000  0.0000000
              0.5000000  0.0000000  0.5000000     0.0000000  0.5000000  0.5000000
              0.0000000  0.0000000  0.0000000     0.5000000  0.5000000  0.0000000
              0.5000000  0.0000000  0.5000000     0.0000000  0.5000000  0.5000000
              0.0000000  0.0000000  0.0000000     0.5000000  0.5000000  0.0000000
              0.5000000  0.0000000  0.5000000     0.0000000  0.5000000  0.5000000
              0.0000000  0.0000000  0.0000000     0.5000000  0.5000000  0.0000000
              0.5000000  0.0000000  0.5000000     0.0000000  0.5000000  0.5000000
              0.0000000  0.0000000  0.0000000     0.5000000  0.5000000  0.0000000
              0.5000000  0.0000000  0.5000000     0.0000000  0.5000000  0.5000000
              0.0000000  0.0000000  0.0000000     0.5000000  0.5000000  0.0000000
              0.5000000  0.0000000  0.5000000     0.0000000  0.5000000  0.5000000
              0.0000000  0.0000000  0.0000000     0.5000000  0.5000000  0.0000000
              0.5000000  0.0000000  0.5000000     0.0000000  0.5000000  0.5000000
              0.0000000  0.0000000  0.0000000     0.5000000  0.5000000  0.0000000
              0.5000000  0.0000000  0.5000000     0.0000000  0.5000000  0.5000000
              0.0000000  0.0000000  0.0000000     0.5000000  0.5000000  0.0000000
              0.5000000  0.0000000  0.5000000     0.0000000  0.5000000  0.5000000
              0.0000000  0.0000000  0.0000000     0.5000000  0.5000000  0.0000000
              0.5000000  0.0000000  0.5000000     0.0000000  0.5000000  0.5000000
              0.0000000  0.0000000  0.0000000     0.5000000  0.5000000  0.0000000
              0.5000000  0.0000000  0.5000000     0.0000000  0.5000000  0.5000000
              0.0000000  0.0000000  0.0000000     0.5000000  0.5000000  0.0000000
              0.5000000  0.0000000  0.5000000     0.0000000  0.5000000  0.5000000
              0.0000000  0.0000000  0.0000000     0.5000000  0.5000000  0.0000000
              0.5000000  0.0000000  0.5000000     0.0000000  0.5000000  0.5000000
              0.0000000  0.0000000  0.0000000     0.5000000  0.5000000  0.0000000
              0.5000000  0.0000000  0.5000000     0.0000000  0.5000000  0.5000000
    toldfe    1.00000000E-09 Hartree
    tsmear    5.00000000E-03 Hartree
     typat    1  1  1  1
    xangst    2.2890652695E-16  2.2890652695E-16  2.2890652695E-16
              2.0618066990E+00  2.0618066990E+00  2.2890652695E-16
              2.0618066990E+00  2.2890652695E-16  2.0618066990E+00
              2.2890652695E-16  2.0618066990E+00  2.0618066990E+00
     xcart    4.3257064597E-16  4.3257064597E-16  4.3257064597E-16
              3.8962500000E+00  3.8962500000E+00  4.3257064597E-16
              3.8962500000E+00  4.3257064597E-16  3.8962500000E+00
              4.3257064597E-16  3.8962500000E+00  3.8962500000E+00
      xred    5.5511151231E-17  5.5511151231E-17  5.5511151231E-17
              5.0000000000E-01  5.0000000000E-01  5.5511151231E-17
              5.0000000000E-01  5.5511151231E-17  5.0000000000E-01
              5.5511151231E-17  5.0000000000E-01  5.0000000000E-01
     znucl     13.00000

================================================================================

- Total cpu        time (s,m,h):          1.1        0.02      0.000
- Total wall clock time (s,m,h):          1.1        0.02      0.000

- For major independent code sections, cpu and wall times (sec),
- as well as % of the total time and number of calls 

- routine                 cpu     %       wall     %      number of calls 
-                                                          (-1=no count)
- timing timab           0.504  45.2      0.503  45.1             12
- invars2                0.102   9.1      0.102   9.1              1
- pspini                 0.083   7.4      0.083   7.4              1
- symrhg(no FFT)         0.052   4.7      0.052   4.7             13
- fourwf(pot)            0.049   4.4      0.049   4.4             74
- fourdp                 0.028   2.5      0.046   4.1             53
- abinit(2)              0.028   2.5      0.029   2.6              1
- setsym                 0.026   2.3      0.026   2.3              1
- forces                 0.011   1.0      0.011   1.0              1
- mkrho/=                0.009   0.8      0.005   0.4             26
- ewald                  0.008   0.7      0.009   0.8              1
- fourwf(den)            0.008   0.7      0.002   0.2             13
- vtorho(4)-mkrho-       0.006   0.5      0.005   0.4             26
- 57   others            0.017   1.5      0.019   1.7

- subtotal               0.931  83.4      0.941  84.4

================================================================================

 Calculation completed.
.Delivered   10 WARNINGs and   1 COMMENTs to log file.
+Overall time at end (sec) : cpu=          1.1  wall=          1.1
