
.Version 5.6.3  of ABINIT 
.(sequential version, prepared for a x86_64_linux_gcc4.3 computer) 

.Copyright (C) 1998-2008 ABINIT group . 
 ABINIT comes with ABSOLUTELY NO WARRANTY.
 It is free software, and you are welcome to redistribute it
 under certain conditions (GNU General Public License,
 see ~abinit/COPYING or http://www.gnu.org/copyleft/gpl.txt).

 ABINIT is a project of the Universite Catholique de Louvain,
 Corning Inc. and other collaborators, see ~abinit/doc/developers/contributors.txt .
 Please read ~abinit/doc/users/acknowledgments.html for suggested
 acknowledgments of the ABINIT effort.
 For more information, see http://www.abinit.org .

.Starting date : Tue 11 Nov 2008.
  
- input  file    -> /home/gonze/ABINIT/ABINITv5.6.3/5.6.3-private/tests/v4/Input/t97.in
- output file    -> t97.out
- root for input  files -> t97i
- root for output files -> t97o


 Symmetries : space group P1 (#  1); Bravais aP (primitive triclinic)
================================================================================
 Values of the parameters that define the memory need of the present run
   intxc =         0  ionmov =        12    iscf =         5 xclevel =         0
  lmnmax =         1   lnmax =         1   mband =         1  mffmem =         1
P  mgfft =        36   mkmem =         1 mpssoang=         1     mpw =      1277
  mqgrid =      3001   natom =        32    nfft =     46656    nkpt =         1
  nloalg =         4  nspden =         1 nspinor =         1  nsppol =         1
    nsym =         1  n1xccc =         0  ntypat =         1  occopt =         0
================================================================================
P This job should need less than                      10.404 Mbytes of memory.
  Rough estimation (10% accuracy) of disk space for files :
  WF disk file :      0.021 Mbytes ; DEN or POT disk file :      0.358 Mbytes.
================================================================================

 -outvars: echo values of preprocessed input variables --------
     acell    1.2000000000E+01  1.2000000000E+01  1.2000000000E+01 Bohr
       amu    1.08110000E+01
    dielng    5.00000000E-01 Bohr
    diemac    5.00000000E+00
    diemix    5.00000000E-01
     dtion    1.00000000E+01
      ecut    1.00000000E+01 Hartree
    ionmov        12
      iscf         5
    istwfk      2
       ixc         0
P    mkmem         1
     natom        32
     nband         1
     ngfft        36      36      36
      nkpt         1
     nstep        50
      nsym         1
     ntime        10
    ntypat         1
       occ  160.000000
    occopt         0
   spgroup         1
 tfkinfunc         1
    timopt        -1
    toldfe    1.00000000E-06 Hartree
    tsmear    2.57245160E-02 Hartree
     typat    1  1  1  1  1  1  1  1  1  1  1  1  1  1  1  1  1  1  1  1
              1  1  1  1  1  1  1  1  1  1  1  1
       vel   -2.5298357213E-03  3.6818676446E-03 -1.7257200666E-04
             -3.9114124464E-03 -9.3173107326E-04  8.6173647007E-03
              2.6999345033E-03  5.1620109938E-03  3.0499390262E-03
              3.9510548022E-03 -3.0362540187E-03  6.2040846010E-03
              4.7780162485E-03  1.4857733590E-03 -4.7110727177E-03
             -3.2434684445E-03 -1.8798210776E-03 -1.6147326200E-03
             -2.6090457262E-03 -3.7884099774E-03  1.6432575399E-03
             -7.0118584812E-04 -1.7795815049E-03 -3.1465412310E-03
             -7.2968932785E-04  2.5607658432E-03  9.7222039312E-04
             -1.1782359323E-03 -1.4792517883E-03 -9.1285375974E-04
              4.9989727243E-03 -4.5750665933E-04  8.8403054841E-04
              4.0814579134E-03  7.0561368410E-03  3.7690719658E-03
              4.5410582656E-03  6.8398203020E-03  2.1746066557E-03
             -4.4456475906E-03 -1.5223178746E-03  3.5528317790E-03
              1.0881752922E-03 -1.5149239901E-03 -5.3559695208E-03
             -1.3336616382E-03 -2.6481077718E-03 -7.7205803080E-03
              3.3019913149E-03  1.2019234481E-03  3.2362796164E-03
              2.5415083503E-03  3.6976089395E-03 -1.5735776443E-03
              8.9999734634E-03 -4.6312031126E-03 -1.2695103959E-03
             -9.6589386676E-03 -9.4970484962E-04  4.1659947756E-03
              7.0423312958E-03 -7.1923161448E-03 -3.8204216227E-03
              4.5361721585E-03 -1.8853962202E-03  5.4155610134E-04
             -2.4718093328E-04  2.5766531892E-04  2.4382762105E-04
              6.5538775434E-04  3.9791035580E-03 -3.5459325452E-03
             -3.2737318114E-03 -4.1667565848E-03 -8.8541893767E-04
             -3.3180876589E-03  3.7226419558E-03 -7.8915646558E-03
             -5.5078732277E-03 -2.7133615453E-03  4.5820343971E-03
             -7.2802383890E-04 -3.4726040048E-03  1.4507893501E-03
             -8.6946676570E-04  1.7698915998E-03  8.9238064651E-04
             -3.7392038294E-03  1.2303663178E-03  2.0950685335E-03
             -5.8814162236E-03  3.3069424091E-03 -3.4720178342E-03
              6.9007154519E-04 -1.9032703327E-03 -1.9825724516E-03
    xangst    6.1555108979E-04  4.1650392776E-04  9.8723139269E-04
              1.5867238854E+00  1.5874023673E+00 -1.7153171451E-04
              1.5875162595E+00  1.0458138768E-03  1.5871703629E+00
             -3.4333382730E-04  1.5866367453E+00  1.5882204710E+00
             -1.5811919424E-05  1.6753985532E-05  3.1750389396E+00
              1.5878063432E+00  1.5877562151E+00  3.1751973386E+00
              1.5879662120E+00  6.3577267236E-04  4.7628163459E+00
              8.1837531157E-04  1.5862595767E+00  4.7636058525E+00
              2.0063015017E-04  3.1766969548E+00 -1.4683871938E-04
              1.5872651734E+00  4.7625252318E+00 -5.1972691987E-04
              1.5876645125E+00  3.1745452195E+00  1.5892166952E+00
             -8.0283810293E-05  4.7624354319E+00  1.5876296153E+00
             -1.0507241945E-03  3.1748454302E+00  3.1752537792E+00
              1.5868713913E+00  4.7626517852E+00  3.1749924968E+00
              1.5877933860E+00  3.1751574364E+00  4.7622841879E+00
             -6.3236968122E-04  4.7616370282E+00  4.7616786509E+00
              3.1751854408E+00 -5.2105183927E-05  5.0043239009E-04
              4.7631429440E+00  1.5862955028E+00  3.3511843561E-04
              4.7628965927E+00  5.4295725106E-04  1.5889122412E+00
              3.1751567797E+00  1.5880952406E+00  1.5877227258E+00
              3.1760407395E+00 -7.8818494981E-04  3.1751043204E+00
              4.7622075802E+00  1.5876067793E+00  3.1756648673E+00
              4.7621064872E+00  1.3557414044E-03  4.7626062098E+00
              3.1750022119E+00  1.5880843833E+00  4.7626044545E+00
              3.1755162406E+00  3.1741697150E+00  5.2052929573E-04
              4.7630088424E+00  4.7623745776E+00 -7.8567286499E-04
              4.7621224347E+00  3.1750473766E+00  1.5879299743E+00
              3.1752188704E+00  4.7614712413E+00  1.5880223431E+00
              3.1747598469E+00  3.1748156802E+00  3.1750631868E+00
              4.7639536614E+00  4.7622530063E+00  3.1757143186E+00
              4.7635923540E+00  3.1744131757E+00  4.7628835609E+00
              3.1763106240E+00  4.7629730790E+00  4.7638584104E+00
     xcart    1.1632229805E-03  7.8707835674E-04  1.8655969620E-03
              2.9984735919E+00  2.9997557370E+00 -3.2414796352E-04
              2.9999709619E+00  1.9763018131E-03  2.9993173121E+00
             -6.4880690575E-04  2.9983089210E+00  3.0013017288E+00
             -2.9880197346E-05  3.1660444289E-05  5.9999540571E+00
              3.0005191407E+00  3.0004244123E+00  6.0002533879E+00
              3.0008212490E+00  1.2014362335E-03  9.0004185149E+00
              1.5465052128E-03  2.9975961757E+00  9.0019104662E+00
              3.7913603783E-04  6.0030872518E+00 -2.7748496532E-04
              2.9994964780E+00  8.9998683890E+00 -9.8214154243E-04
              3.0002511195E+00  5.9990210614E+00  3.0031843197E+00
             -1.5171441436E-04  8.9996986919E+00  3.0001851733E+00
             -1.9855809689E-03  5.9995883773E+00  6.0003600450E+00
              2.9987523376E+00  9.0001075403E+00  5.9998662930E+00
              3.0004946552E+00  6.0001779837E+00  8.9994128820E+00
             -1.1950055122E-03  8.9981899275E+00  8.9982685830E+00
              6.0002309042E+00 -9.8464527726E-05  9.4568016529E-04
              9.0010356960E+00  2.9976640660E+00  6.3328206539E-04
              9.0005701594E+00  1.0260405064E-03  3.0026089851E+00
              6.0001767426E+00  3.0010650777E+00  3.0003611268E+00
              6.0018471846E+00 -1.4894536972E-03  6.0000776089E+00
              8.9992681146E+00  3.0001420196E+00  6.0011368890E+00
              8.9990770765E+00  2.5619799614E-03  9.0000214153E+00
              5.9998846518E+00  3.0010445603E+00  9.0000180982E+00
              6.0008560253E+00  5.9983114606E+00  9.8365781307E-04
              9.0007822806E+00  8.9995836938E+00 -1.4847065449E-03
              8.9991072129E+00  5.9999700006E+00  3.0007527696E+00
              6.0002940770E+00  8.9978766357E+00  3.0009273214E+00
              5.9994266484E+00  5.9995321580E+00  5.9999998776E+00
              9.0025677298E+00  8.9993539573E+00  6.0012303384E+00
              9.0018849578E+00  5.9987715347E+00  9.0005455329E+00
              6.0023571924E+00  9.0007146976E+00  9.0023877315E+00
      xred    9.6935248375E-05  6.5589863062E-05  1.5546641350E-04
              2.4987279932E-01  2.4997964475E-01 -2.7012330294E-05
              2.4999758016E-01  1.6469181776E-04  2.4994310934E-01
             -5.4067242145E-05  2.4985907675E-01  2.5010847740E-01
             -2.4900164455E-06  2.6383703574E-06  4.9999617142E-01
              2.5004326172E-01  2.5003536769E-01  5.0002111566E-01
              2.5006843742E-01  1.0011968613E-04  7.5003487624E-01
              1.2887543440E-04  2.4979968131E-01  7.5015920552E-01
              3.1594669819E-05  5.0025727098E-01 -2.3123747110E-05
              2.4995803984E-01  7.4998903242E-01 -8.1845128536E-05
              2.5002092663E-01  4.9991842178E-01  2.5026535997E-01
             -1.2642867863E-05  7.4997489099E-01  2.5001543111E-01
             -1.6546508074E-04  4.9996569811E-01  5.0003000375E-01
              2.4989602814E-01  7.5000896169E-01  4.9998885775E-01
              2.5004122127E-01  5.0001483197E-01  7.4995107350E-01
             -9.9583792687E-05  7.4984916062E-01  7.4985571525E-01
              5.0001924202E-01 -8.2053773105E-06  7.8806680441E-05
              7.5008630800E-01  2.4980533884E-01  5.2773505449E-05
              7.5004751328E-01  8.5503375530E-05  2.5021741543E-01
              5.0001472855E-01  2.5008875647E-01  2.5003009390E-01
              5.0015393205E-01 -1.2412114143E-04  5.0000646741E-01
              7.4993900955E-01  2.5001183497E-01  5.0009474075E-01
              7.4992308971E-01  2.1349833012E-04  7.5000178461E-01
              4.9999038765E-01  2.5008704669E-01  7.5000150818E-01
              5.0007133544E-01  4.9985928838E-01  8.1971484423E-05
              7.5006519005E-01  7.4996530782E-01 -1.2372554541E-04
              7.4992560107E-01  4.9999750005E-01  2.5006273080E-01
              5.0002450642E-01  7.4982305298E-01  2.5007727678E-01
              4.9995222070E-01  4.9996101317E-01  4.9999998980E-01
              7.5021397748E-01  7.4994616311E-01  5.0010252820E-01
              7.5015707982E-01  4.9989762789E-01  7.5004546108E-01
              5.0019643270E-01  7.5005955814E-01  7.5019897762E-01
     znucl      5.00000

================================================================================

 chkinp: Checking input parameters for consistency.

================================================================================
== DATASET  1 ==================================================================

 Real(R)+Recip(G) space primitive vectors, cartesian coordinates (Bohr,Bohr^-1):
 R(1)= 12.0000000  0.0000000  0.0000000  G(1)=  0.0833333  0.0000000  0.0000000
 R(2)=  0.0000000 12.0000000  0.0000000  G(2)=  0.0000000  0.0833333  0.0000000
 R(3)=  0.0000000  0.0000000 12.0000000  G(3)=  0.0000000  0.0000000  0.0833333
 Unit cell volume ucvol=  1.7280000E+03 bohr^3
 Angles (23,13,12)=  9.00000000E+01  9.00000000E+01  9.00000000E+01 degrees

 getcut: wavevector=  0.0000  0.0000  0.0000  ngfft=  36  36  36
         ecut(hartree)=     10.000   => boxcut(ratio)=   2.10744

--- Pseudopotential description ------------------------------------------------
- pspini: atom type   1  psp file is /home/gonze/ABINIT/ABINITv5.6.3/5.6.3-private/tests/Psps_for_tests/05b.soft_tm
- pspatm: opening atomic psp file    /home/gonze/ABINIT/ABINITv5.6.3/5.6.3-private/tests/Psps_for_tests/05b.soft_tm
  Troullier-Martins-Fermi psp for element  B         dim jui 18 17:59:39 CEST 2004
   5.00000   5.00000     40425                znucl, zion, pspdat
    1    1    0    0      2001   0.00000      pspcod,pspxc,lmax,lloc,mmax,r2well
    0   7.740  11.990    0   1.5855604        l,e99.0,e99.9,nproj,rcpsp
   0.00000000   0.00000000   0.00000000   0.00000000     rms, ekb1, ekb2, epsatm
    0.00000000000000    0.00000000000000    0.00000000000000   rchrg,fchrg,qchrg
 Note: local psp for atom with Z=  5.0
 pspatm: epsatm=   -0.27723898
         --- l  ekb(1:nproj) -->
 pspatm: atomic psp has been read  and splines computed

  -1.41946356E+03                                ecore*ucvol(ha*bohr**3)
--------------------------------------------------------------------------------

P newkpt: treating      1 bands with npw=    1277 for ikpt=   1

 setup2: Arith. and geom. avg. npw (full set) are    2553.000    2553.000

================================================================================

 MOLDYN STEP NUMBER    0  ------------------------------------------------------

     iter   Etot(hartree)      deltaE(h)  residm     vres2    diffor    maxfor
 ETOT  1  -455.35200516375    -4.554E+02 0.000E+00 4.250E+04 1.164E-02 1.164E-02
 ETOT  2  -544.47639031855    -8.912E+01 0.000E+00 1.021E+04 4.711E-04 1.135E-02
 ETOT  3  -572.81963644673    -2.834E+01 0.000E+00 5.754E+01 4.064E-04 1.136E-02
 ETOT  4  -573.02198458439    -2.023E-01 0.000E+00 1.672E+01 2.372E-04 1.112E-02
 ETOT  5  -573.08027951053    -5.829E-02 0.000E+00 2.791E-01 2.559E-04 1.087E-02
 ETOT  6  -573.08091289871    -6.334E-04 0.000E+00 2.775E-02 8.556E-05 1.095E-02
 ETOT  7  -573.08095939128    -4.649E-05 0.000E+00 8.824E-04 2.991E-05 1.096E-02
 ETOT  8  -573.08095980016    -4.089E-07 0.000E+00 1.094E-03 2.011E-06 1.096E-02
 ETOT  9  -573.08096435458    -4.554E-06 0.000E+00 1.045E-04 7.803E-06 1.097E-02
 ETOT 10  -573.08096649629    -2.142E-06 0.000E+00 3.524E-07 1.720E-06 1.097E-02
 ETOT 11  -573.08096649241     3.881E-09 0.000E+00 6.170E-08 5.645E-08 1.097E-02
 ETOT 12  -573.08096653573    -4.332E-08 0.000E+00 6.229E-09 2.360E-08 1.097E-02

 At SCF step   12, etot is converged :
  for the second time, diff in etot=  4.332E-08 < toldfe=  1.000E-06

 Cartesian components of stress tensor (hartree/bohr^3)
  sigma(1 1)=  1.37503712E-02  sigma(3 2)= -8.00491444E-09
  sigma(2 2)=  1.37505133E-02  sigma(3 1)= -3.16478004E-08
  sigma(3 3)=  1.37504074E-02  sigma(2 1)= -7.37251524E-09

 Cartesian coordinates (bohr)
  1.16322298049880E-03  7.87078356742800E-04  1.86559696197600E-03
  2.99847359190000E+00  2.99975573696400E+00 -3.24147963524400E-04
  2.99997096188400E+00  1.97630181312000E-03  2.99931731206800E+00
 -6.48806905746000E-04  2.99830892100000E+00  3.00130172882400E+00
 -2.98801973462400E-05  3.16604442894000E-05  5.99995405710000E+00
  3.00051914066400E+00  3.00042441226800E+00  6.00025338787200E+00
  3.00082124898000E+00  1.20143623352400E-03  9.00041851494000E+00
  1.54650521278800E-03  2.99759617567200E+00  9.00191046624000E+00
  3.79136037826800E-04  6.00308725176000E+00 -2.77484965324800E-04
  2.99949647802000E+00  8.99986838899200E+00 -9.82141542434400E-04
  3.00025111954800E+00  5.99902106137200E+00  3.00318431968800E+00
 -1.51714414358400E-04  8.99969869186800E+00  3.00018517330800E+00
 -1.98558096885600E-03  5.99958837733200E+00  6.00036004503600E+00
  2.99875233764400E+00  9.00010754034000E+00  5.99986629298800E+00
  3.00049465520400E+00  6.00017798366400E+00  8.99941288203600E+00
 -1.19500551223800E-03  8.99818992748800E+00  8.99826858301200E+00
  6.00023090418000E+00 -9.84645277261200E-05  9.45680165290800E-04
  9.00103569596400E+00  2.99766406603200E+00  6.33282065391600E-04
  9.00057015938400E+00  1.02604050636240E-03  3.00260898513600E+00
  6.00017674255200E+00  3.00106507766400E+00  3.00036112675200E+00
  6.00184718456400E+00 -1.48945369720800E-03  6.00007760894400E+00
  8.99926811456400E+00  3.00014201964000E+00  6.00113688897600E+00
  8.99907707648400E+00  2.56197996139200E-03  9.00002141534400E+00
  5.99988465177600E+00  3.00104456026800E+00  9.00001809820800E+00
  6.00085602529200E+00  5.99831146059600E+00  9.83657813072400E-04
  9.00078228056400E+00  8.99958369384000E+00 -1.48470654487200E-03
  8.99910721285200E+00  5.99997000063600E+00  3.00075276961200E+00
  6.00029407700400E+00  8.99787663574800E+00  3.00092732140800E+00
  5.99942664835200E+00  5.99953215801600E+00  5.99999987762400E+00
  9.00256772976000E+00  8.99935395734400E+00  6.00123033843600E+00
  9.00188495779200E+00  5.99877153468000E+00  9.00054553294800E+00
  6.00235719237600E+00  9.00071469762000E+00  9.00238773150000E+00
 Velocities (bohr/(atomic time unit))
 -2.52983572132000E-03  3.68186764457000E-03 -1.72572006658000E-04
 -3.91141244642000E-03 -9.31731073264000E-04  8.61736470070000E-03
  2.69993450330000E-03  5.16201099379000E-03  3.04993902616000E-03
  3.95105480223000E-03 -3.03625401871000E-03  6.20408460095000E-03
  4.77801624847000E-03  1.48577335896000E-03 -4.71107271772000E-03
 -3.24346844454000E-03 -1.87982107765000E-03 -1.61473261998000E-03
 -2.60904572618000E-03 -3.78840997736000E-03  1.64325753994000E-03
 -7.01185848123000E-04 -1.77958150488000E-03 -3.14654123104000E-03
 -7.29689327851000E-04  2.56076584322000E-03  9.72220393125000E-04
 -1.17823593233000E-03 -1.47925178827000E-03 -9.12853759738000E-04
  4.99897272432000E-03 -4.57506659326000E-04  8.84030548412000E-04
  4.08145791344000E-03  7.05613684103000E-03  3.76907196575000E-03
  4.54105826560000E-03  6.83982030198000E-03  2.17460665566000E-03
 -4.44564759055000E-03 -1.52231787463000E-03  3.55283177898000E-03
  1.08817529222000E-03 -1.51492399010000E-03 -5.35596952076000E-03
 -1.33366163821000E-03 -2.64810777176000E-03 -7.72058030804000E-03
  3.30199131488000E-03  1.20192344814000E-03  3.23627961642000E-03
  2.54150835029000E-03  3.69760893952000E-03 -1.57357764434000E-03
  8.99997346339000E-03 -4.63120311263000E-03 -1.26951039589000E-03
 -9.65893866758000E-03 -9.49704849624000E-04  4.16599477557000E-03
  7.04233129578000E-03 -7.19231614482000E-03 -3.82042162265000E-03
  4.53617215852000E-03 -1.88539622017000E-03  5.41556101341000E-04
 -2.47180933278000E-04  2.57665318923000E-04  2.43827621049000E-04
  6.55387754337000E-04  3.97910355804000E-03 -3.54593254516000E-03
 -3.27373181140000E-03 -4.16675658476000E-03 -8.85418937669000E-04
 -3.31808765889000E-03  3.72264195583000E-03 -7.89156465578000E-03
 -5.50787322772000E-03 -2.71336154531000E-03  4.58203439707000E-03
 -7.28023838904000E-04 -3.47260400475000E-03  1.45078935015000E-03
 -8.69466765701000E-04  1.76989159978000E-03  8.92380646514000E-04
 -3.73920382936000E-03  1.23036631776000E-03  2.09506853346000E-03
 -5.88141622360000E-03  3.30694240914000E-03 -3.47201783417000E-03
  6.90071545191000E-04 -1.90327033267000E-03 -1.98257245164000E-03
 Cartesian forces (hart/bohr); max,rms= 1.09665E-02 3.88563E-03 (free atoms)
 -2.79782092880083E-03 -7.21051910121474E-04 -3.69084787689535E-03
  6.57865539196344E-03 -1.16491988227795E-03  3.09762518587302E-03
 -1.82826362274752E-04 -8.25966756723074E-03  2.45728867872301E-03
  3.26494315209187E-03  4.69763377788783E-03 -1.70175760054644E-03
  5.27436689839522E-04 -1.99979881082082E-03  5.86637143774279E-04
 -5.08560052507671E-04 -8.10982717064536E-04  9.06383673246020E-04
 -2.08435602049150E-03 -4.13601880062022E-03  4.30852168700005E-04
 -4.49250505724549E-03  8.12172912878951E-03 -3.36384636750681E-03
 -4.23872336626442E-04 -1.07652993250820E-02  5.16549312191208E-04
  2.46656525515143E-03  1.30367607253451E-03  5.85629960606801E-03
  5.00150522055321E-04  3.04326292111126E-03 -8.33115876591267E-03
  1.15660939185239E-03  2.89768230217509E-03  5.20987470417138E-04
  7.47117381123274E-03  2.44531922776061E-03  1.23819867202199E-03
  4.85096879706974E-03 -2.78039305944548E-03  2.21030990859757E-03
 -1.46161019032600E-03 -2.34688021880254E-03  4.00278921770998E-03
  4.49813252491099E-03  4.09321286516414E-03  6.09215378141443E-03
 -1.42627304032278E-03 -8.33968400679152E-04 -3.55624682408265E-03
 -2.95528862237582E-03  7.81664412474352E-03  3.15000309700718E-04
  6.11868566135236E-04 -3.80689928882522E-03 -6.55980489831866E-03
 -4.75516361475782E-04 -3.25566528301646E-03 -1.78654550895052E-04
 -3.84015191023251E-03  7.43626699216981E-03  2.15159035848614E-03
  2.80041533714922E-03 -1.86168428295235E-03 -1.93622622710444E-03
  2.59311906272402E-03 -1.09665104409823E-02  2.06332212303681E-03
  1.39112648383819E-03 -3.99161703063400E-03  3.15930889626222E-04
 -9.39977840976218E-04  5.94778788912977E-03 -6.45821795266181E-04
 -1.84678658452565E-03 -4.78798757543458E-04  6.64223162157424E-03
  1.88624040374503E-03 -1.34249848243907E-03 -1.28057401511211E-03
  4.81834443730992E-05  5.01651350857302E-03 -4.35101508583607E-04
  1.50203353592806E-03  4.72872648746549E-04  2.97548121546269E-04
 -7.25965633493129E-03  2.47251950335249E-03 -2.01241566710825E-03
 -4.23808776605301E-03  4.64596548895797E-03 -1.05844793618977E-03
 -7.21433296089456E-03 -8.88432192558338E-04 -4.95079420918507E-03

 At the end of Moldyn step     0, POT.En.= -5.73080966535728E+02 Ha.
                              KIN+POT.En.= -5.59731805996734E+02 Ha.

 MOLDYN STEP NUMBER    1  ------------------------------------------------------

     iter   Etot(hartree)      deltaE(h)  residm     vres2    diffor    maxfor
 ETOT  1  -572.69811710009    -5.727E+02 0.000E+00 5.803E+01 1.204E-01 1.230E-01
 ETOT  2  -572.89456114394    -1.964E-01 0.000E+00 3.106E+00 5.297E-02 1.680E-01
 ETOT  3  -572.89790881597    -3.348E-03 0.000E+00 2.080E-01 1.131E-02 1.775E-01
 ETOT  4  -572.89789443240     1.438E-05 0.000E+00 2.044E-01 9.142E-04 1.783E-01
 ETOT  5  -572.89805795948    -1.635E-04 0.000E+00 1.843E-02 1.813E-03 1.796E-01
 ETOT  6  -572.89807833055    -2.037E-05 0.000E+00 1.381E-03 5.317E-04 1.801E-01
 ETOT  7  -572.89808167729    -3.347E-06 0.000E+00 3.693E-04 1.501E-04 1.802E-01
 ETOT  8  -572.89808239739    -7.201E-07 0.000E+00 2.566E-05 9.742E-05 1.801E-01
 ETOT  9  -572.89808240395    -6.565E-09 0.000E+00 1.051E-06 1.550E-05 1.801E-01

 At SCF step    9, etot is converged :
  for the second time, diff in etot=  6.565E-09 < toldfe=  1.000E-06

 Cartesian components of stress tensor (hartree/bohr^3)
  sigma(1 1)=  1.38833110E-02  sigma(3 2)= -5.07121514E-06
  sigma(2 2)=  1.37862738E-02  sigma(3 1)=  2.25742603E-06
  sigma(3 3)=  1.38580123E-02  sigma(2 1)=  1.74353396E-05

 Cartesian coordinates (bohr)
  1.16322298049880E-03  7.87078356742800E-04  1.86559696197600E-03
  2.99847359190000E+00  2.99975573696400E+00 -3.24147963524400E-04
  2.99997096188400E+00  1.97630181312000E-03  2.99931731206800E+00
 -6.48806905746000E-04  2.99830892100000E+00  3.00130172882400E+00
 -2.98801973462400E-05  3.16604442894000E-05  5.99995405710000E+00
  3.00051914066400E+00  3.00042441226800E+00  6.00025338787200E+00
  3.00082124898000E+00  1.20143623352400E-03  9.00041851494000E+00
  1.54650521278800E-03  2.99759617567200E+00  9.00191046624000E+00
  3.79136037826800E-04  6.00308725176000E+00 -2.77484965324800E-04
  2.99949647802000E+00  8.99986838899200E+00 -9.82141542434400E-04
  3.00025111954800E+00  5.99902106137200E+00  3.00318431968800E+00
 -1.51714414358400E-04  8.99969869186800E+00  3.00018517330800E+00
 -1.98558096885600E-03  5.99958837733200E+00  6.00036004503600E+00
  2.99875233764400E+00  9.00010754034000E+00  5.99986629298800E+00
  3.00049465520400E+00  6.00017798366400E+00  8.99941288203600E+00
 -1.19500551223800E-03  8.99818992748800E+00  8.99826858301200E+00
  6.00023090418000E+00 -9.84645277261200E-05  9.45680165290800E-04
  9.00103569596400E+00  2.99766406603200E+00  6.33282065391600E-04
  9.00057015938400E+00  1.02604050636240E-03  3.00260898513600E+00
  6.00017674255200E+00  3.00106507766400E+00  3.00036112675200E+00
  6.00184718456400E+00 -1.48945369720800E-03  6.00007760894400E+00
  8.99926811456400E+00  3.00014201964000E+00  6.00113688897600E+00
  8.99907707648400E+00  2.56197996139200E-03  9.00002141534400E+00
  5.99988465177600E+00  3.00104456026800E+00  9.00001809820800E+00
  6.00085602529200E+00  5.99831146059600E+00  9.83657813072400E-04
  9.00078228056400E+00  8.99958369384000E+00 -1.48470654487200E-03
  8.99910721285200E+00  5.99997000063600E+00  3.00075276961200E+00
  6.00029407700400E+00  8.99787663574800E+00  3.00092732140800E+00
  5.99942664835200E+00  5.99953215801600E+00  5.99999987762400E+00
  9.00256772976000E+00  8.99935395734400E+00  6.00123033843600E+00
  9.00188495779200E+00  5.99877153468000E+00  9.00054553294800E+00
  6.00235719237600E+00  9.00071469762000E+00  9.00238773150000E+00
 Velocities (bohr/(atomic time unit))
 -2.53381229211827E-03  3.67683987633897E-03 -1.68951989160306E-04
 -3.89917129688764E-03 -9.31239576761533E-04  8.63963306211151E-03
  2.68523014110178E-03  5.17240130239093E-03  3.04823894535042E-03
  3.95821900554602E-03 -3.03468593005198E-03  6.19960084738418E-03
  4.77110902610720E-03  1.47962409229459E-03 -4.71582030120573E-03
 -3.23426603928993E-03 -1.87445993927914E-03 -1.62699700305967E-03
 -2.61671642390210E-03 -3.79599544998744E-03  1.64140045131985E-03
 -7.04175460262250E-04 -1.77673671882523E-03 -3.13781446092784E-03
 -7.28730891548241E-04  2.53888579660867E-03  9.65469845643383E-04
 -1.16385459861025E-03 -1.48124361900895E-03 -9.10653482075640E-04
  4.99217031345192E-03 -4.57149210489572E-04  8.76933149087449E-04
  4.07413401408781E-03  7.07053996375416E-03  3.76205147711931E-03
  4.53736232594544E-03  6.83676903802186E-03  2.18294321280439E-03
 -4.43453815199727E-03 -1.52098819919975E-03  3.54991487507979E-03
  1.08587826425558E-03 -1.51059811282856E-03 -5.35611659028790E-03
 -1.33282379445652E-03 -2.64124932080346E-03 -7.72142723792723E-03
  3.29376581918031E-03  1.19526416126926E-03  3.23016418937089E-03
  2.53388405111337E-03  3.68831294903622E-03 -1.57499002907985E-03
  9.01631568954180E-03 -4.63237324024279E-03 -1.27322568294907E-03
 -9.68587991132270E-03 -9.50902453697691E-04  4.15097559132255E-03
  7.03846636378239E-03 -7.19619790701223E-03 -3.80590842246263E-03
  4.54082676464679E-03 -1.88464261438232E-03  5.44546804585889E-04
 -2.48357777284201E-04  2.59651608258319E-04  2.41565712660976E-04
  6.68009743958107E-04  3.98310332459756E-03 -3.53414650395244E-03
 -3.27273098209752E-03 -4.15747114176432E-03 -8.84128853950351E-04
 -3.30979914317322E-03  3.72199758314138E-03 -7.89356570535259E-03
 -5.51263786907523E-03 -2.70516602974274E-03  4.57896769658229E-03
 -7.16314913373672E-04 -3.47128460654098E-03  1.45278535422248E-03
 -8.73332862223924E-04  1.76271010953568E-03  8.88339692862804E-04
 -3.73508635108291E-03  1.22378907721198E-03  2.09223241443669E-03
 -5.88175689351902E-03  3.31368131621954E-03 -3.46274496656317E-03
  6.88614129517424E-04 -1.90118612806144E-03 -1.97927209297434E-03
 Cartesian forces (hart/bohr); max,rms= 1.80104E-01 9.46730E-02 (free atoms)
  4.78074148657428E-02 -1.07268991304952E-01  2.20627345688710E-02
  1.35239811774490E-01  2.54286228312660E-02 -1.22116655261527E-01
 -1.22301491176787E-01 -7.45929686267179E-02 -8.22366566015933E-02
 -6.98093570501917E-02  7.42133308632391E-02 -1.64592150408627E-01
 -1.42175709911340E-01 -5.77642302739946E-02  9.36559719891430E-02
  1.14400557533147E-01  6.69298860009940E-02 -1.04056388246886E-02
  3.44738298060710E-02  6.51299304605557E-02 -4.71100963651731E-02
  9.56220931595833E-03  4.56796626635117E-02  1.13072661411317E-01
  2.16782747001256E-02 -1.36548764403213E-01 -5.03437669869886E-02
  8.22741572254268E-02  2.63154464616587E-02  2.46483594026777E-02
 -1.47031671028810E-01  9.31616580394253E-03 -4.07186404597859E-02
 -1.27751222201964E-01 -1.15408237487077E-01 -1.18435117023439E-01
 -1.30843064058536E-01 -1.78358145907902E-01 -2.05973072210023E-02
  1.45328527521122E-01  4.44959968177484E-02 -9.88222306354012E-02
 -3.36381637905231E-02  5.56576546689074E-02  1.23762170055960E-01
  3.07415284247843E-02  8.63063910620944E-02  1.75583885089911E-01
 -1.10023526712780E-01 -5.41353285213151E-02 -9.80207076419184E-02
 -8.79025667117956E-02 -1.32982043519249E-01  3.18445911613968E-02
 -1.52079461272765E-01  1.10206558561786E-01  2.24040530735239E-02
  1.26085479637861E-01  2.13190886561153E-02 -1.58676708695226E-01
 -1.80104030377488E-01  1.49650421330620E-01  1.46427873534809E-01
 -9.32272235678068E-02  5.00119269716338E-02  7.15879853608460E-04
 -1.30180600038076E-03  1.26301697343067E-02 -1.68011473470029E-02
  3.24969288902010E-02 -7.56376646420742E-02  1.30974557842830E-01
  8.33301563749013E-02  1.30377329984850E-01  2.69361583916800E-02
  1.13939933981180E-01 -9.12644210822912E-02  1.74594593902715E-01
  1.11380596098480E-01  9.85764873004264E-02 -1.20574049380684E-01
  6.34093052263500E-02  8.33733085957788E-02 -2.64881669453970E-02
  4.13807774743429E-03 -7.11094409258855E-02 -3.75633040059065E-02
  1.13071025219340E-01 -5.78111051304703E-02 -5.93341147606543E-02
  1.43859624867555E-01 -5.74297365074378E-02  1.20706157386297E-01
 -1.50281453490041E-02  5.46926995631448E-02  6.54468109002752E-02

 At the end of Moldyn step     1, POT.En.= -5.72898082403952E+02 Ha.
                              KIN+POT.En.= -5.59548921864959E+02 Ha.

 MOLDYN STEP NUMBER    2  ------------------------------------------------------

     iter   Etot(hartree)      deltaE(h)  residm     vres2    diffor    maxfor
 ETOT  1  -572.35319251802    -5.724E+02 0.000E+00 5.647E+01 3.865E-01 2.604E-01
 ETOT  2  -572.54862035365    -1.954E-01 0.000E+00 3.217E+00 8.896E-02 2.490E-01
 ETOT  3  -572.55120780214    -2.587E-03 0.000E+00 2.620E-01 1.526E-02 2.554E-01
 ETOT  4  -572.55119368395     1.412E-05 0.000E+00 2.073E-01 4.434E-04 2.556E-01
 ETOT  5  -572.55135922983    -1.655E-04 0.000E+00 1.897E-02 2.478E-03 2.568E-01
 ETOT  6  -572.55138111515    -2.189E-05 0.000E+00 9.892E-04 6.810E-04 2.571E-01
 ETOT  7  -572.55138484776    -3.733E-06 0.000E+00 3.202E-04 1.602E-04 2.571E-01
 ETOT  8  -572.55138497676    -1.290E-07 0.000E+00 2.721E-05 1.327E-04 2.571E-01
 ETOT  9  -572.55138494252     3.424E-08 0.000E+00 1.508E-06 1.959E-05 2.571E-01

 At SCF step    9, etot is converged :
  for the second time, diff in etot=  3.424E-08 < toldfe=  1.000E-06

 Cartesian components of stress tensor (hartree/bohr^3)
  sigma(1 1)=  1.40860551E-02  sigma(3 2)= -1.22311012E-05
  sigma(2 2)=  1.38909619E-02  sigma(3 1)=  1.41998953E-06
  sigma(3 3)=  1.40347672E-02  sigma(2 1)=  5.02994646E-05

 Cartesian coordinates (bohr)
 -2.41429454829392E-02  3.76049626070964E-02  1.30463958148551E-04
  2.95937505672064E+00  2.99043520814473E+00  8.58597858990476E-02
  3.02697060366763E+00  5.35769097595182E-02  3.02982379611152E+00
  3.88711379160088E-02  2.96795744416523E+00  3.06334000496482E+00
  4.77529665258934E-02  1.48847387625924E-02  5.95284349114178E+00
  2.96808225217893E+00  2.98162361431339E+00  5.98410790642989E+00
  2.97472476833748E+00 -3.66942245899673E-02  9.01685264641683E+00
 -5.47694906756520E-03  2.97982046552304E+00  8.97043563283930E+00
 -6.91903824293803E-03  6.02866831816793E+00  9.44630343044528E-03
  2.98772004487340E+00  8.98507876203372E+00 -1.00960778570559E-02
  3.05024352404682E+00  5.99445358717787E+00  3.01200373662258E+00
  4.06669490477000E-02  9.07026940002236E+00  3.03787827660623E+00
  4.34452366361556E-02  6.06799471143262E+00  6.02210986573727E+00
  2.95430691708065E+00  8.98487687839416E+00  6.03540121960433E+00
  3.01137300632331E+00  5.98502236254368E+00  8.94586183374028E+00
 -1.45205850649880E-02  8.97171848894879E+00  8.92107606177669E+00
  6.03324812884819E+00  1.19189926314307E-02  3.33003652240529E-02
  9.02644399736895E+00  3.03466102928174E+00 -1.51021384684706E-02
  9.09057398186462E+00 -4.52969540642627E-02  2.98989688017409E+00
  5.90358342833810E+00  2.99155950143402E+00  3.04202179485452E+00
  6.07226273832285E+00 -7.33957742319363E-02  5.96187777540418E+00
  9.04463821919754E+00  2.98128280287752E+00  6.00654769001235E+00
  8.99661177670929E+00  5.11088180024158E-03  9.00246499525047E+00
  6.00644224348123E+00  3.04082658939811E+00  8.96455857538446E+00
  5.96811540003094E+00  5.95665781147864E+00 -7.87241956154721E-03
  8.96759578360129E+00  9.03680994732795E+00 -8.03857237836172E-02
  8.94403171464173E+00  5.97283221463604E+00  3.04657115537348E+00
  5.99301375576927E+00  8.96316234517954E+00  3.01543451969105E+00
  5.99073554667245E+00  6.01723277237922E+00  6.00892469041759E+00
  8.96515621906855E+00  9.01166424034532E+00  6.02217650813591E+00
  8.94305838590760E+00  6.03185367800769E+00  8.96582169101986E+00
  6.00923979821789E+00  8.98167920400643E+00  8.98254888743924E+00
 Velocities (bohr/(atomic time unit))
 -2.52947203273589E-03  3.65057856160623E-03 -1.61451411163371E-04
 -3.86270169275980E-03 -9.24678221851853E-04  8.74148156565262E-03
  2.63109012021137E-03  5.19311443291154E-03  3.02485130619872E-03
  3.96089087727911E-03 -3.02714351886972E-03  6.19290062900637E-03
  4.75019454248455E-03  1.45620329325087E-03 -4.72340538762569E-03
 -3.19768018672287E-03 -1.85701142871558E-03 -1.64816246395636E-03
 -2.62146246298489E-03 -3.80314785636132E-03  1.62287599264609E-03
 -7.07327130220531E-04 -1.76855565848477E-03 -3.09161073883899E-03
 -7.23280673866332E-04  2.47440034841415E-03  9.42882790327105E-04
 -1.12191740732663E-03 -1.47959706821376E-03 -9.00019262060459E-04
  4.97393956056001E-03 -4.58373867734698E-04  8.60824421032347E-04
  4.02522392473576E-03  7.11312077386662E-03  3.72847096759099E-03
  4.51903603044559E-03  6.83318420561604E-03  2.18971218488334E-03
 -4.40168393557105E-03 -1.50126028462463E-03  3.52913274068537E-03
  1.07380588722969E-03 -1.49695122988034E-03 -5.35965588115897E-03
 -1.33570382186170E-03 -2.59736810624265E-03 -7.75537003297110E-03
  3.26120672004456E-03  1.16727377719995E-03  3.20163483257530E-03
  2.49746361629719E-03  3.64110060485217E-03 -1.55981507619394E-03
  9.09752121262914E-03 -4.61392732060939E-03 -1.26311631602558E-03
 -9.80957011044713E-03 -9.49584800926820E-04  4.09837318868334E-03
  7.05300961888832E-03 -7.23960286065865E-03 -3.74988982532413E-03
  4.54704490436926E-03 -1.87047505109361E-03  5.50303773558913E-04
 -2.50728637480974E-04  2.72577674402362E-04  2.31612169767852E-04
  6.85180345269831E-04  3.98499566058827E-03 -3.48877833396509E-03
 -3.25708887944260E-03 -4.13238533535854E-03 -8.72642233622481E-04
 -3.27392410453207E-03  3.70797281226780E-03 -7.93233773608353E-03
 -5.51819127133884E-03 -2.65695304287770E-03  4.56449836644029E-03
 -6.80900518072624E-04 -3.45829407572644E-03  1.45525294389406E-03
 -8.76642227219493E-04  1.72936541728505E-03  8.68833340171330E-04
 -3.70483972426159E-03  1.18663025934141E-03  2.08275985924742E-03
 -5.88512349834654E-03  3.31062348589298E-03 -3.42837523328420E-03
  6.82630954758352E-04 -1.88583157926599E-03 -1.95177114007125E-03
 Cartesian forces (hart/bohr); max,rms= 2.57070E-01 1.30468E-01 (free atoms)
  8.92330486129435E-02 -1.69813178403136E-01  1.52992469413376E-02
  1.92343085493558E-01  4.44056787773587E-02  1.12992311914461E-01
 -2.17177223367667E-01 -8.90788882342514E-02 -1.53865757764270E-01
 -1.07155051965066E-01  9.90266067392054E-02 -1.55022668952469E-01
 -1.65626207372890E-01 -1.04158512952496E-01  9.98182053366571E-02
  1.82203664941475E-01  9.02098143101218E-02  4.52238848482228E-03
  7.08754575456315E-02  8.65551085680481E-02 -1.03314565686634E-01
  1.14200509059141E-02  7.05308423303579E-02  2.16756941258806E-01
  3.41996735017182E-02 -2.36552344521322E-01 -8.39419407733627E-02
  1.37276750668294E-01  5.03066844883662E-02  6.02187498075848E-02
 -1.60687762387102E-01  7.51462841866348E-03 -6.39643971392703E-02
 -2.57069510838776E-01 -5.21825315430201E-02 -1.91386990458412E-01
 -1.55760991874789E-01 -1.59175561059772E-01 -5.62960902454146E-02
  1.93398336374202E-01  1.04958066258724E-01 -1.50754371965445E-01
 -6.51437488106079E-02  6.93391561904479E-02  1.15822455081681E-01
  2.10206585354440E-02  2.10987185743481E-01  5.64850889112846E-02
 -1.73607280346864E-01 -1.12268811584475E-01 -1.66827627741220E-01
 -1.74966226418549E-01 -2.26821730994330E-01  1.02357077617304E-01
  4.41342697898481E-02  1.81501795451419E-01  7.76242541672712E-02
 -1.53154865470791E-01  2.88669665683560E-02 -2.44114950104245E-01
 -9.57546038918480E-02  2.04599944247340E-02  2.53483008740456E-01
 -9.73148550031999E-02  9.48197952485438E-02 -3.94484430713161E-03
  3.78159922186039E-03  2.57648308857967E-02 -3.36787809985671E-02
  3.07473817787805E-03 -1.05536181215171E-01  2.14276385092097E-01
  1.32983750563791E-01  1.64760306603085E-01  6.00078281858500E-02
  1.83459084236627E-01 -1.39971336192327E-01  4.66736339585314E-02
  1.27793298391963E-01  2.18699803503783E-01 -1.52909915646592E-01
  1.09379058495772E-01  1.31945114446608E-01 -3.26146276621876E-02
  2.42865529835515E-02 -1.43168379456667E-01 -8.10319302086244E-02
  1.82402181122807E-01 -1.45954365766095E-01 -7.68449854622228E-02
  1.21233091681487E-01 -1.11531185259807E-01  1.77996528245639E-01
 -4.10800234966165E-02  9.55606282257706E-02  1.36180341372285E-01

 At the end of Moldyn step     2, POT.En.= -5.72551384942516E+02 Ha.
                              KIN+POT.En.= -5.59202224403523E+02 Ha.

 MOLDYN STEP NUMBER    3  ------------------------------------------------------

     iter   Etot(hartree)      deltaE(h)  residm     vres2    diffor    maxfor
 ETOT  1  -572.11153014873    -5.721E+02 0.000E+00 5.469E+01 3.197E-01 3.478E-01
 ETOT  2  -572.30588122417    -1.944E-01 0.000E+00 3.297E+00 9.143E-02 3.379E-01
 ETOT  3  -572.30833227574    -2.451E-03 0.000E+00 2.877E-01 1.514E-02 3.426E-01
 ETOT  4  -572.30832220416     1.007E-05 0.000E+00 2.108E-01 1.907E-04 3.426E-01
 ETOT  5  -572.30849130267    -1.691E-04 0.000E+00 1.946E-02 2.255E-03 3.436E-01
 ETOT  6  -572.30851443897    -2.314E-05 0.000E+00 8.764E-04 6.763E-04 3.438E-01
 ETOT  7  -572.30851840901    -3.970E-06 0.000E+00 2.984E-04 1.289E-04 3.439E-01
 ETOT  8  -572.30851831080     9.821E-08 0.000E+00 2.912E-05 1.306E-04 3.438E-01
 ETOT  9  -572.30851828971     2.109E-08 0.000E+00 1.758E-06 2.016E-05 3.438E-01

 At SCF step    9, etot is converged :
  for the second time, diff in etot=  2.109E-08 < toldfe=  1.000E-06

 Cartesian components of stress tensor (hartree/bohr^3)
  sigma(1 1)=  1.41477796E-02  sigma(3 2)= -2.35678890E-06
  sigma(2 2)=  1.40143258E-02  sigma(3 1)= -2.63515824E-05
  sigma(3 3)=  1.40823924E-02  sigma(2 1)=  7.19284388E-05

 Cartesian coordinates (bohr)
 -4.95131078971047E-02  7.43234176175210E-02 -1.51315877499962E-03
  2.92049098170857E+00  2.98113103479340E+00  1.72469430918192E-01
  3.05367455524844E+00  1.05424854460835E-01  3.06028181379342E+00
  7.85157808474564E-02  2.93761536080864E+00  3.12529322291026E+00
  9.53916598983927E-02  2.96237338183946E-02  5.90563756462962E+00
  2.93583453063295E+00  2.96293563504238E+00  5.96771276230242E+00
  2.94848660401481E+00 -7.47186998089304E-02  9.03324633130785E+00
 -1.25370847855067E-02  2.96206156826193E+00  8.93915489856388E+00
 -1.41953845495205E-02  6.05386369225655E+00  1.90314512169540E-02
  2.97622027277376E+00  8.97024344184595E+00 -1.91951271430262E-02
  3.10009388229489E+00  5.98987807242304E+00  3.02072264106530E+00
  8.13303216070601E-02  9.14111000467416E+00  3.07542560073056E+00
  8.87611235319516E-02  6.13632322984477E+00  6.04401929859231E+00
  2.91006237219198E+00  8.96968796780330E+00  6.07086422085694E+00
  3.02221205508839E+00  5.96996638753518E+00  8.89229071896869E+00
 -2.78514402661094E-02  8.94536541224594E+00  8.84384023802702E+00
  6.06610559622116E+00  2.38063740312479E-02  6.55485032902905E-02
  9.05171284661542E+00  3.07142947577915E+00 -3.08665387096642E-02
  9.18089705263962E+00 -9.16212297389297E-02  2.97714440389862E+00
  5.80645794949311E+00  2.98204704852216E+00  3.08337954446861E+00
  6.14261602197571E+00 -1.45413440386099E-01  5.92396045810847E+00
  9.09008468633221E+00  2.96244932594416E+00  6.01202801203487E+00
  8.99410982069584E+00  7.75528990035044E-03  9.00485254977852E+00
  6.01324556133562E+00  3.08070675298403E+00  8.92933603637053E+00
  5.93540162706784E+00  5.91516269539804E+00 -1.66987915372297E-02
  8.93458697697535E+00  9.07402344748792E+00 -1.59355891692487E-01
  8.88885438357910E+00  5.94586731889585E+00  3.09233175259234E+00
  5.98596852053130E+00  8.92845110153156E+00  3.02998309141045E+00
  5.98195977239238E+00  6.03478583838011E+00  6.01776638199496E+00
  8.92786653123776E+00  9.02382924701981E+00  6.04307475213057E+00
  8.88425012727128E+00  6.06504535037158E+00  8.93129136732092E+00
  6.01612946683266E+00  8.96269120015048E+00  8.96280265456472E+00
 Velocities (bohr/(atomic time unit))
 -2.50208822687241E-03  3.60059217117752E-03 -1.67747635872265E-04
 -3.80857665038726E-03 -9.04890985485668E-04  8.91255025481724E-03
  2.53343166322169E-03  5.20369928594981E-03  2.96086787610129E-03
  3.93880486453416E-03 -3.01021195416248E-03  6.20482278051348E-03
  4.73015308220174E-03  1.40257161777394E-03 -4.73078660019700E-03
 -3.13628674620282E-03 -1.83008218868864E-03 -1.64610994317178E-03
 -2.60368644851622E-03 -3.80635932637936E-03  1.57264666323283E-03
 -7.09403175821987E-04 -1.74637886558458E-03 -2.99293089942762E-03
 -7.11112298988036E-04  2.36318014216026E-03  9.05530457606930E-04
 -1.05897890566903E-03 -1.46155480302501E-03 -8.66475795579778E-04
  4.97320434924392E-03 -4.60963074406727E-04  8.33315304536696E-04
  3.91778311238315E-03  7.18580955330181E-03  3.67218261486255E-03
  4.51220186880548E-03  6.85229318284409E-03  2.16901686975510E-03
 -4.36047806327543E-03 -1.44258569615119E-03  3.49052279095966E-03
  1.04276873862482E-03 -1.48540068845321E-03 -5.38258410388871E-03
 -1.34734621730162E-03 -2.48037821790566E-03 -7.84690472395192E-03
  3.20246604046634E-03  1.10623215003895E-03  3.13686640393075E-03
  2.41573099533610E-03  3.55989351701922E-03 -1.49857735337674E-03
  9.21992678124571E-03 -4.57385036586371E-03 -1.21813710556486E-03
 -9.97879372439509E-03 -9.37663237106140E-04  4.01410043519863E-03
  7.11435734653157E-03 -7.35123938526684E-03 -3.64096514487332E-03
  4.56605872972639E-03 -1.83082449662525E-03  5.47780635563826E-04
 -2.45882933362025E-04  2.89874949029022E-04  2.11628110788774E-04
  6.69541103048688E-04  3.97755415818770E-03 -3.41163420789453E-03
 -3.22114702839837E-03 -4.10725759846685E-03 -8.39908003591755E-04
 -3.21440954404815E-03  3.67791538467550E-03 -8.02648851767734E-03
 -5.53100595258305E-03 -2.54745239451050E-03  4.55300498380066E-03
 -6.25820173146922E-04 -3.42242746007228E-03  1.45518221200632E-03
 -8.63148945774349E-04  1.65890503432672E-03  8.22014759354077E-04
 -3.65147244170363E-03  1.09546949524606E-03  2.06985238470433E-03
 -5.92043944172812E-03  3.27420255540381E-03 -3.37597320117982E-03
  6.53648242816094E-04 -1.84867245898134E-03 -1.88666230146924E-03
 Cartesian forces (hart/bohr); max,rms= 3.43841E-01 1.46425E-01 (free atoms)
  1.11083881263081E-01 -1.60276547138900E-01 -3.42101754455421E-02
  1.61723983972565E-01  6.72373189081400E-02  2.38269039287631E-01
 -2.62796141958776E-01 -5.97541125172268E-02 -2.08372509293875E-01
 -1.24851143184191E-01  7.84113103447262E-02 -2.49926565790457E-02
 -8.70769556412610E-02 -1.59916152956251E-01  4.43040096802540E-02
  1.76064436612208E-01  8.35943901912417E-02  6.41189748653503E-02
  9.51037700952302E-02  4.02076383962433E-02 -1.53503291352062E-01
  6.35904201051657E-03  8.14135387776604E-02  2.84165995083772E-01
  4.01087772727930E-02 -2.90933736159671E-01 -9.73012425803953E-02
  1.50975778796529E-01  7.48413664895198E-02  1.04572256048751E-01
 -2.42967301482647E-02 -8.87990555588129E-04 -7.56242836103866E-02
 -3.12457647784521E-01  7.69658303376173E-02 -1.66262468807841E-01
 -3.65225549987018E-02 -1.60782693193337E-02 -1.05366993389236E-01
  1.29642148582592E-01  1.80612091486881E-01 -1.30195733119491E-01
 -9.61507493743023E-02  3.08143083537295E-02 -9.56106284382921E-03
 -1.78291582034161E-02  3.43841064103423E-01 -1.31834679576716E-01
 -1.76598020761278E-01 -1.70303817425912E-01 -2.04937530436344E-01
 -2.37626727759669E-01 -2.25501345725456E-01  1.95463139358337E-01
  1.02879918063068E-01  1.44954133029831E-01  1.45430489795885E-01
 -1.51396349676787E-01  5.28141053274715E-02 -2.36999547189095E-01
  7.83258858465485E-02 -1.93698059818720E-01  3.11778394277705E-01
  5.43613329008024E-03  1.29513855439605E-01 -2.61939089616512E-02
  2.44844553602020E-02  3.21566625829378E-02 -5.33117285038701E-02
 -8.98137324678432E-02 -6.97402007936245E-02  2.16518867113616E-01
  1.27550489762966E-01  8.52498979533888E-02  1.00593590267176E-01
  1.70212827107386E-01 -1.13950600378490E-01 -1.25765988047933E-01
  2.40349090583196E-02  3.08814019085613E-01 -5.93912958507018E-02
  1.31871505318768E-01  1.35694201946936E-01 -2.10063933175374E-02
  6.09189491313505E-02 -1.96983568852218E-01 -1.34750726843364E-01
  1.62926637369430E-01 -2.55685924879771E-01 -5.01469716013831E-02
 -4.44242409765605E-02 -1.52956141196487E-01  1.53391972182022E-01
 -9.78633759780610E-02  1.19530734962685E-01  1.91122459389800E-01

 At the end of Moldyn step     3, POT.En.= -5.72308518289709E+02 Ha.
                              KIN+POT.En.= -5.58959357750715E+02 Ha.

 MOLDYN STEP NUMBER    4  ------------------------------------------------------

     iter   Etot(hartree)      deltaE(h)  residm     vres2    diffor    maxfor
 ETOT  1  -571.95127544879    -5.720E+02 0.000E+00 5.270E+01 3.363E-01 3.631E-01
 ETOT  2  -572.14284105799    -1.916E-01 0.000E+00 3.379E+00 8.222E-02 3.875E-01
 ETOT  3  -572.14526015181    -2.419E-03 0.000E+00 3.037E-01 1.270E-02 3.923E-01
 ETOT  4  -572.14525265743     7.494E-06 0.000E+00 2.137E-01 7.287E-05 3.923E-01
 ETOT  5  -572.14542493916    -1.723E-04 0.000E+00 1.983E-02 2.110E-03 3.932E-01
 ETOT  6  -572.14544928434    -2.435E-05 0.000E+00 8.394E-04 5.937E-04 3.935E-01
 ETOT  7  -572.14545337560    -4.091E-06 0.000E+00 3.044E-04 1.162E-04 3.935E-01
 ETOT  8  -572.14545325719     1.184E-07 0.000E+00 3.270E-05 1.107E-04 3.935E-01
 ETOT  9  -572.14545327370    -1.651E-08 0.000E+00 1.952E-06 1.656E-05 3.935E-01

 At SCF step    9, etot is converged :
  for the second time, diff in etot=  1.651E-08 < toldfe=  1.000E-06

 Cartesian components of stress tensor (hartree/bohr^3)
  sigma(1 1)=  1.41485194E-02  sigma(3 2)=  2.60981306E-05
  sigma(2 2)=  1.40714965E-02  sigma(3 1)= -9.16153266E-05
  sigma(3 3)=  1.40406281E-02  sigma(2 1)=  7.94049801E-05

 Cartesian coordinates (bohr)
 -7.47308615074413E-02  1.10613715364803E-01 -3.09832227690237E-03
  2.88212419586750E+00  2.97194237859603E+00  2.60690495998241E-01
  3.07958894678708E+00  1.57437486157861E-01  3.09031828862252E+00
  1.18087058767755E-01  2.90741628144295E+00  3.18719524058102E+00
  1.42754023558775E-01  4.40071316914558E-02  5.85837722393469E+00
  2.90413162127720E+00  2.94448487712863E+00  5.95114484281325E+00
  2.92229677372120E+00 -1.12755606599164E-01  9.04930849416128E+00
 -1.96232691937213E-02  2.94445054098208E+00  8.90860690385703E+00
 -2.13840849419644E-02  6.07815258515001E+00  2.83026274586198E-02
  2.96528384473197E+00  8.95548768402602E+00 -2.80954917533048E-02
  3.14971953988023E+00  5.98528625571484E+00  3.02921920006727E+00
  1.21167267882810E-01  9.21253052214172E+00  3.11244454693141E+00
  1.33823288526825E-01  6.20465551035954E+00  6.06590310521094E+00
  2.86627646570443E+00  8.95485336089579E+00  6.10598135171459E+00
  3.03284806613734E+00  5.95508448925383E+00  8.83867084313051E+00
 -4.12342495847978E-02  8.91977449045442E+00  8.76597006509152E+00
  6.09846941538585E+00  3.52626936665307E-02  9.73303203922731E-02
  9.07639045582462E+00  3.10747936477811E+00 -4.62967868049627E-02
  9.27252442220500E+00 -1.37572437220339E-01  2.96463581329628E+00
  5.70739041848494E+00  2.97256830799791E+00  3.12398528890535E+00
  6.21332098524030E+00 -2.18187006949730E-01  5.88688406489377E+00
  9.13557732702785E+00  2.94387486365212E+00  6.01755366681289E+00
  8.99159727880755E+00  1.05628039828458E-02  9.00709671477678E+00
  6.02014584784367E+00  3.12052462858445E+00  8.89478648545463E+00
  5.90297585804076E+00  5.87401288148621E+00 -2.53242980187883E-02
  8.90212029869274E+00  9.11096703055671E+00 -2.39031209715080E-01
  8.83367020786807E+00  5.91969663784444E+00  3.13785849369187E+00
  5.97939744169951E+00  8.89399869796574E+00  3.04453898346942E+00
  5.97320313050737E+00  6.05181780064683E+00  6.02630007456102E+00
  8.89106243657359E+00  9.03539456218874E+00  6.06383039916626E+00
  8.82535816193492E+00  6.09806423148014E+00  8.89725711226025E+00
  6.02289174978495E+00  8.94396414647294E+00  8.94351565530539E+00
 Velocities (bohr/(atomic time unit))
 -2.45992760312350E-03  3.56397232049886E-03 -2.05180841661479E-04
 -3.77765025706021E-03 -8.65141560241176E-04  9.00123678776396E-03
  2.42329554049813E-03  5.21514001183341E-03  2.86393342683817E-03
  3.89317321470468E-03 -2.99919362278681E-03  6.24501679358714E-03
  4.74011915553314E-03  1.31087561885501E-03 -4.75317713925234E-03
 -3.08403947314029E-03 -1.79642246326300E-03 -1.59913988642048E-03
 -2.57165255166500E-03 -3.83340914405462E-03  1.50014367489104E-03
 -7.07573496469053E-04 -1.71566485158526E-03 -2.86572731466515E-03
 -6.91109608805310E-04  2.22968381715945E-03  8.60401379019614E-04
 -9.92947275863182E-04 -1.42536782427393E-03 -8.10621865356047E-04
  5.03710622987807E-03 -4.65107445302649E-04  7.99577679056862E-04
  3.80619755419729E-03  7.25851552002567E-03  3.64406228242676E-03
  4.57158862545524E-03  6.90033178031119E-03  2.11720304499308E-03
 -4.35214239865748E-03 -1.34132340357398E-03  3.46719452921019E-03
  9.95371558570218E-04 -1.49347155474860E-03 -5.45222482236648E-03
 -1.37141593923795E-03 -2.30891020904112E-03 -7.94570310592061E-03
  3.14674540112686E-03  1.01780011144481E-03  3.04833082110961E-03
  2.31295292135407E-03  3.49410147909897E-03 -1.39286724138642E-03
  9.26129985229400E-03 -4.57144275409752E-03 -1.14287074330522E-03
 -1.00233260642569E-02 -9.06505821513983E-04  3.94406632049184E-03
  7.18973494911885E-03 -7.48395268144695E-03 -3.50996086316852E-03
  4.63700338156809E-03 -1.76954846631852E-03  5.26803386636718E-04
 -2.23301487274453E-04  3.10980672647407E-04  1.78183568875753E-04
  6.03303145338555E-04  3.99140312875907E-03 -3.34614777679485E-03
 -3.18640744435485E-03 -4.12739590037466E-03 -7.83620214726684E-04
 -3.16811482403267E-03  3.66503765274675E-03 -8.11488423243615E-03
 -5.58614056391676E-03 -2.40663962632944E-03  4.59640183639461E-03
 -5.60300063405475E-04 -3.38414505962882E-03  1.45526627089619E-03
 -8.25671493025820E-04  1.56592395359954E-03  7.42411453720425E-04
 -3.61871567583170E-03  9.52608566368968E-04  2.06555828067090E-03
 -6.00800226463329E-03  3.21355669857844E-03 -3.33641121543183E-03
  5.90546955128067E-04 -1.79628894334756E-03 -1.79725427367408E-03
 Cartesian forces (hart/bohr); max,rms= 3.93472E-01 1.49569E-01 (free atoms)
  1.18698572769593E-01 -7.57433959305456E-02 -1.08677620665798E-01
  5.72260858212409E-02  1.12195130168195E-01 -1.18858353761494E-01
 -2.34791491586460E-01 -2.86231328563212E-02 -2.48415093309397E-01
 -1.55429910929634E-01  4.19724791242036E-02  2.39495150494872E-02
  5.14291288234254E-03 -2.36409456264641E-01 -1.11066818863776E-02
  1.09480561963423E-01  9.55729749468715E-02  1.62767079411451E-01
  9.74887146684044E-02 -4.90645278124143E-02 -1.71681870442996E-01
  1.90326237631287E-02  8.40201858882928E-02  2.92311859200960E-01
  5.67305950868724E-02 -2.94117632284746E-01 -1.03219513934110E-01
  1.35564530572331E-01  1.04838569666542E-01  1.37126215941914E-01
  1.48164603315410E-01 -3.58372632309342E-03 -7.82858974834059E-02
 -2.26212031667495E-01  2.44141935347635E-02 -3.81289100220435E-02
  1.54497677511584E-01  2.92534983383571E-02 -1.53870158151793E-01
  1.46830182134488E-02  2.54318300629801E-01 -5.07918429230558E-02
 -1.16822379318745E-01 -2.45406056303552E-02 -1.26269911481088E-01
 -4.22410336875816E-02  3.93471525572553E-01 -5.50724362250885E-02
 -1.24312502211570E-01 -2.05535910392251E-01 -2.23328710775047E-01
 -2.28066072273246E-01 -1.24058613868656E-01  2.58359231494854E-01
 -1.77105613565014E-01 -1.85288490392489E-02  1.81554075856376E-01
  2.32829990503185E-01  9.36957174323773E-02 -1.40876940093745E-01
  3.53974007855336E-02 -1.39193332743674E-01  2.96202670836380E-01
  1.56501873572015E-01  1.58197656297532E-01 -7.03326684731717E-02
  7.06099389615449E-02  4.33511856707442E-02 -8.35574089112123E-02
 -1.87739802638869E-01  2.23507662187692E-02  1.28061520510111E-01
  9.14355100918071E-02 -5.93306850011743E-02  1.42143078089418E-01
  9.39325886811652E-02 -3.07762251986540E-02 -1.56143058439664E-02
 -9.90810274884028E-02  3.09701271560634E-01  1.13470503670216E-01
  1.41597761351737E-01  1.02374243371817E-01 -1.59528515547477E-02
  1.08521867292026E-01 -2.10859084405624E-01 -1.99165673156990E-01
  5.91890405456166E-02 -3.33785939184617E-01 -1.97263836035017E-02
 -1.48011381701006E-01 -1.69254587295198E-01  8.84616003185230E-02
 -1.66912621284385E-01  1.33678005809762E-01  2.08525882319339E-01

 At the end of Moldyn step     4, POT.En.= -5.72145453273704E+02 Ha.
                              KIN+POT.En.= -5.58796292734711E+02 Ha.

 MOLDYN STEP NUMBER    5  ------------------------------------------------------

     iter   Etot(hartree)      deltaE(h)  residm     vres2    diffor    maxfor
 ETOT  1  -571.78031261412    -5.718E+02 0.000E+00 5.095E+01 2.511E-01 3.676E-01
 ETOT  2  -571.96857051663    -1.883E-01 0.000E+00 3.515E+00 8.105E-02 3.568E-01
 ETOT  3  -571.97101877674    -2.448E-03 0.000E+00 3.204E-01 1.215E-02 3.657E-01
 ETOT  4  -571.97101374132     5.035E-06 0.000E+00 2.160E-01 1.572E-04 3.655E-01
 ETOT  5  -571.97118984618    -1.761E-04 0.000E+00 1.993E-02 2.046E-03 3.670E-01
 ETOT  6  -571.97121558112    -2.573E-05 0.000E+00 8.467E-04 5.812E-04 3.675E-01
 ETOT  7  -571.97121972008    -4.139E-06 0.000E+00 3.384E-04 1.103E-04 3.676E-01
 ETOT  8  -571.97121974522    -2.513E-08 0.000E+00 3.834E-05 1.063E-04 3.675E-01
 ETOT  9  -571.97121981929    -7.407E-08 0.000E+00 2.062E-06 1.578E-05 3.675E-01

 At SCF step    9, etot is converged :
  for the second time, diff in etot=  7.407E-08 < toldfe=  1.000E-06

 Cartesian components of stress tensor (hartree/bohr^3)
  sigma(1 1)=  1.40838610E-02  sigma(3 2)=  5.10907106E-05
  sigma(2 2)=  1.40824991E-02  sigma(3 1)= -1.59442666E-04
  sigma(3 3)=  1.40469932E-02  sigma(2 1)=  8.02170598E-05

 Cartesian coordinates (bohr)
 -9.95520424085434E-02  1.46331184951992E-01 -4.86827464307954E-03
  2.84432369407538E+00  2.96303446783033E+00  3.50715725610084E-01
  3.10433904965816E+00  2.09494405309293E-01  3.11949517078125E+00
  1.57287846796256E-01  2.87741405860309E+00  3.24938478228839E+00
  1.89990412736151E-01  5.76727525994596E-02  5.81102577957767E+00
  2.87311265499693E+00  2.92633608107807E+00  5.93479234937547E+00
  2.89641564640650E+00 -1.50842672009352E-01  9.06469677691862E+00
 -2.67245588487931E-02  2.92713599909121E+00  8.87930094736832E+00
 -2.84167538894357E-02  6.10112304642604E+00  3.71405524660859E-02
  2.95504277309461E+00  8.94101408321660E+00 -3.65231030438498E-02
  3.19955400879025E+00  5.98065915143062E+00  3.03738767740104E+00
  1.59680379156186E-01  9.28482142257996E+00  3.14886507218221E+00
  1.79001444900430E-01  6.27336378395663E+00  6.08739710585180E+00
  2.82285720120816E+00  8.94083887298124E+00  6.14067093850390E+00
  3.04306582809161E+00  5.94025975624418E+00  8.78464301964229E+00
 -5.47974984246119E-02  8.89576263322538E+00  8.68690695102410E+00
  6.13015100325838E+00  4.59287391933863E-02  1.28281727057271E-01
  9.10002362974092E+00  3.14262274823335E+00 -6.08352985993902E-02
  9.36528949890633E+00 -1.83093555973799E-01  2.95278381340830E+00
  5.60688832630679E+00  2.96329493908904E+00  3.16365651496717E+00
  6.28489846121222E+00 -2.92434318881749E-01  5.85114654516348E+00
  9.18140245969319E+00  2.92583531536850E+00  6.02298298929226E+00
  8.98919255507483E+00  1.35528424324271E-02  9.00908450061196E+00
  6.02663511708807E+00  3.16025424239955E+00  8.86110776207479E+00
  5.87098219889073E+00  5.83302136648416E+00 -3.34954653599993E-02
  8.87030265479418E+00  9.14757801314515E+00 -3.19880667579429E-01
  8.77823864392816E+00  5.89492281026635E+00  3.18338791173250E+00
  5.97345370664276E+00  8.86000628566964E+00  3.05908545907038E+00
  5.96469796118578E+00  6.06796101796496E+00  6.03420491509456E+00
  8.85484121935545E+00  9.04573564393395E+00  6.08446981232887E+00
  8.76584543192977E+00  6.13052563381990E+00  8.86377575148385E+00
  6.02920110919015E+00  8.92572015923486E+00  8.92507245193935E+00
 Velocities (bohr/(atomic time unit))
 -2.41722854649840E-03  3.58139792461306E-03 -2.77549166722397E-04
 -3.81165187677274E-03 -7.98660053660708E-04  8.93372311865056E-03
  2.34341423161982E-03  5.23056048530757E-03  2.75291455947974E-03
  3.82834908488951E-03 -3.00754497837251E-03  6.26802208304001E-03
  4.78372097784321E-03  1.18195312683183E-03 -4.79593459895818E-03
 -3.07292296149542E-03 -1.74474306888861E-03 -1.49796623663968E-03
 -2.54613995448316E-03 -3.90454273608218E-03  1.43056230946782E-03
 -6.91278600272866E-04 -1.68387336521991E-03 -2.74887009891627E-03
 -6.58382549822354E-04  2.10310856668379E-03  8.10370594965128E-04
 -9.36925176136265E-04 -1.37260272364507E-03 -7.44182894281107E-04
  5.15868798249749E-03 -4.67420258513643E-04  7.65693445898233E-04
  3.75980984273874E-03  7.26082534943911E-03  3.68818881630614E-03
  4.70876872487437E-03  6.93366330134991E-03  2.04397672332837E-03
 -4.39477477113166E-03 -1.20951880553953E-03  3.49074498428310E-03
  9.40996567682538E-04 -1.52335386276210E-03 -5.54667499516812E-03
 -1.39590007698527E-03 -2.14474082692163E-03 -7.97858605073702E-03
  3.12387891478171E-03  9.21528477429297E-04  2.95362022366714E-03
  2.23476867471431E-03  3.49340966293642E-03 -1.26823100855673E-03
  9.22382190642209E-03 -4.65217893189986E-03 -1.06119848910620E-03
 -9.97427345155385E-03 -8.64589651336292E-04  3.93512116527473E-03
  7.19404617334909E-03 -7.53232303604726E-03 -3.40949965264966E-03
  4.77369432189246E-03 -1.69407143705484E-03  4.80210532763279E-04
 -1.73806670732650E-04  3.39450072711992E-04  1.26915702233639E-04
  4.98283386272258E-04  4.05497762801727E-03 -3.33846664756604E-03
 -3.16952966484712E-03 -4.21603900207484E-03 -7.07227028837862E-04
 -3.16037132046697E-03  3.69087841527438E-03 -8.12919451805143E-03
 -5.66856215659406E-03 -2.28660145351717E-03  4.71612992100458E-03
 -4.89915386781301E-04 -3.36632751577115E-03  1.45020949617227E-03
 -7.65524616188733E-04  1.47463073777938E-03  6.29530688089080E-04
 -3.64730243763512E-03  7.86599506644330E-04  2.06506966981946E-03
 -6.09272795376210E-03  3.15390629683054E-03 -3.32848569096348E-03
  4.94977382593896E-04 -1.73775784454261E-03 -1.70893695727247E-03
 Cartesian forces (hart/bohr); max,rms= 3.67521E-01 1.61875E-01 (free atoms)
  1.09380495415379E-01  5.70291989156660E-02 -1.70740624767369E-01
 -9.84392377591095E-02  1.70331056781782E-01 -3.67520712597542E-01
 -1.38351919543830E-01 -3.86793463269482E-02 -2.58045070098847E-01
 -1.94803574198455E-01 -1.31273647709434E-03 -8.68592264953741E-02
  5.00192079219008E-02 -3.02404428126241E-01 -4.03932867978117E-02
  9.66567891141995E-03  1.51624294912981E-01  2.74153836975122E-01
  6.57652458812175E-02 -1.36575920082102E-01 -1.38452797548018E-01
  6.24115243544059E-02  8.29635674535720E-02  2.37031585353860E-01
  8.88583202458309E-02 -2.57843836340895E-01 -1.14478598831030E-01
  1.08865947007408E-01  1.37489863730183E-01  1.43815939879034E-01
  2.06137806149438E-01  5.91554861634958E-03 -7.44535703416921E-02
 -4.91107480191595E-02 -1.93659777107450E-01  1.22408539415082E-01
  2.72602713377211E-01 -6.76358932853419E-02 -1.85818428418915E-01
 -7.56199871418457E-02  2.96529667577051E-01  5.84801483433563E-02
 -1.21244073765713E-01 -5.63030850830957E-02 -1.11133243512169E-01
 -2.03012278145179E-02  3.08072686046272E-01  1.20973551043845E-01
 -4.25679515013320E-02 -1.97683534185785E-01 -2.23559164953211E-01
 -1.35709869262671E-01  3.59122387269018E-02  2.65531839104583E-01
 -1.97277101195467E-01 -1.86871350982460E-01  1.67357762122086E-01
  2.05643958687589E-01  9.32303566501779E-02  9.25252406193301E-03
 -1.95111833997255E-01  1.33068015307313E-01  1.84425863407341E-01
  2.67060750080980E-01  1.81796867982520E-01 -1.25745705514658E-01
  1.29434255987997E-01  6.09139709450140E-02 -1.22315997846931E-01
 -2.39782700535572E-01  1.29745014792561E-01 -1.60556537023433E-02
  5.29537022598213E-02 -1.87964193647385E-01  1.77293808753581E-01
  1.40528661871128E-02  4.25565811894444E-02  1.58637536894872E-01
 -8.77811963253710E-02  2.20831622490069E-01  2.44468293464244E-01
  1.48710686825767E-01  5.05353660029723E-02 -3.96371017039322E-02
  1.48117340729061E-01 -1.86213058450457E-01 -2.62673481775534E-01
 -8.30020779081291E-02 -3.41875142118201E-01 -3.28623672080589E-02
 -3.74054348896613E-02 -1.43884806937188E-01  2.43903622073809E-02
 -2.23171566164450E-01  1.40361191029813E-01  1.82523441087116E-01

 At the end of Moldyn step     5, POT.En.= -5.71971219819290E+02 Ha.
                              KIN+POT.En.= -5.58622059280296E+02 Ha.

 MOLDYN STEP NUMBER    6  ------------------------------------------------------

     iter   Etot(hartree)      deltaE(h)  residm     vres2    diffor    maxfor
 ETOT  1  -571.66469448796    -5.717E+02 0.000E+00 4.962E+01 3.466E-01 3.437E-01
 ETOT  2  -571.85073678596    -1.860E-01 0.000E+00 3.703E+00 8.719E-02 3.612E-01
 ETOT  3  -571.85330428747    -2.568E-03 0.000E+00 3.368E-01 1.392E-02 3.656E-01
 ETOT  4  -571.85330078028     3.507E-06 0.000E+00 2.194E-01 1.617E-04 3.654E-01
 ETOT  5  -571.85348276439    -1.820E-04 0.000E+00 1.991E-02 2.268E-03 3.661E-01
 ETOT  6  -571.85351004909    -2.728E-05 0.000E+00 9.175E-04 6.607E-04 3.664E-01
 ETOT  7  -571.85351423391    -4.185E-06 0.000E+00 3.999E-04 1.220E-04 3.664E-01
 ETOT  8  -571.85351455431    -3.204E-07 0.000E+00 4.556E-05 1.287E-04 3.664E-01
 ETOT  9  -571.85351471033    -1.560E-07 0.000E+00 2.159E-06 1.926E-05 3.664E-01

 At SCF step    9, etot is converged :
  for the second time, diff in etot=  1.560E-07 < toldfe=  1.000E-06

 Cartesian components of stress tensor (hartree/bohr^3)
  sigma(1 1)=  1.38743831E-02  sigma(3 2)=  5.70895544E-05
  sigma(2 2)=  1.40876516E-02  sigma(3 1)= -1.79305490E-04
  sigma(3 3)=  1.40310627E-02  sigma(2 1)=  7.01683193E-05

 Cartesian coordinates (bohr)
 -1.23926443146921E-01  1.81889629901454E-01 -7.20264229471344E-03
  2.80657474943388E+00  2.95464115704576E+00  4.40706892528827E-01
  3.12805098621804E+00  2.61735777527185E-01  3.14759261495619E+00
  1.95946082009059E-01  2.84743520659907E+00  3.31209064412208E+00
  2.37552558373025E-01  7.02216725186923E-02  5.76331749233405E+00
  2.84245424043262E+00  2.90855866838500E+00  5.91916466259227E+00
  2.87086661469380E+00 -1.89421037423800E-01  9.07930875989101E+00
 -3.37740058849946E-02  2.91013932555740E+00  8.85129705327178E+00
 -3.52052550681919E-02  6.12274207321389E+00  4.55091212545872E-02
  2.94542680115363E+00  8.92698233789654E+00 -4.43061642059481E-02
  3.25045871945818E+00  5.97598445971626E+00  3.04520946973009E+00
  1.97286281640667E-01  9.35769507230408E+00  3.18532249664002E+00
  2.25252548788776E-01  6.34265671844708E+00  6.10824419485220E+00
  2.77923730666580E+00  8.92803003297948E+00  6.17532198993782E+00
  3.05275374368446E+00  5.92521608683316E+00  8.72962980791738E+00
 -6.86617817986406E-02  8.87360133633773E+00  8.60706208122241E+00
  6.16140074439063E+00  5.56162124232827E-02  1.58292644484591E-01
  9.12264578735010E+00  3.17735753235276E+00 -7.41509167763336E-02
  9.45774139951179E+00 -2.28997689763951E-01  2.94178079220608E+00
  5.50693398911049E+00  2.95443968680670E+00  3.20286224921018E+00
  6.35711006850348E+00 -3.67861035835148E-01  5.81669010317174E+00
  9.22831484480827E+00  2.90848661501844E+00  6.02808873823574E+00
  8.98713199855477E+00  1.67825099159281E-02  9.01065956985035E+00
  6.03220991011393E+00  3.20034959522727E+00  8.82786730262310E+00
  5.83925105705723E+00  5.79146787443810E+00 -4.09949193821984E-02
  8.83876135513098E+00  9.18426452942556E+00 -4.01322360854605E-01
  8.72195118575253E+00  5.87156830377358E+00  3.22978366879185E+00
  5.96819303574230E+00  8.82631939465569E+00  3.07364298682275E+00
  5.95669124845598E+00  6.08313330379000E+00  6.04114609722204E+00
  8.81869156709162E+00  9.05444327502792E+00  6.10513971167332E+00
  8.70520185956666E+00  6.16233137119546E+00  8.83053233509244E+00
  6.03470086574313E+00  8.90804091360384E+00  8.90757371686929E+00
 Velocities (bohr/(atomic time unit))
 -2.38453738436999E-03  3.65788836655181E-03 -3.68518404958153E-04
 -3.91806386633405E-03 -7.08184861185992E-04  8.83954604416102E-03
  2.31151353817682E-03  5.21711600923971E-03  2.64718063684077E-03
  3.74261597722755E-03 -3.03797121750485E-03  6.22527547090315E-03
  4.82090647936995E-03  1.02811924564395E-03 -4.83453502952635E-03
 -3.10983348362735E-03 -1.65803160217384E-03 -1.34171765879731E-03
 -2.54433373977991E-03 -4.00339258854055E-03  1.38803946106162E-03
 -6.49492310329146E-04 -1.65057991836704E-03 -2.66377635373942E-03
 -6.09274735746736E-04  1.99538569320474E-03  7.52429052126146E-04
 -8.95299430154568E-04 -1.30297567328762E-03 -6.76368252986099E-04
  5.25419516781328E-03 -4.62996906566303E-04  7.34656662063071E-04
  3.78150215217518E-03  7.17123295779494E-03  3.79156320853716E-03
  4.84766897885307E-03  6.91688312452158E-03  1.95634842255434E-03
 -4.45883014801156E-03 -1.06547021828773E-03  3.56477703298552E-03
  8.82721824776511E-04 -1.55939696265238E-03 -5.58821308825167E-03
 -1.39850570366364E-03 -2.04192501035366E-03 -7.97152178520008E-03
  3.13401550067016E-03  8.37553923856454E-04  2.86221762922577E-03
  2.20599635417845E-03  3.56374643289508E-03 -1.14233041097265E-03
  9.22539070983585E-03 -4.77030697076631E-03 -9.85353284049033E-04
 -9.96097890381395E-03 -8.32964701489042E-04  3.99039978618312E-03
  7.10440159570387E-03 -7.48009014941423E-03 -3.36779147507765E-03
  4.92764901400029E-03 -1.60653902073570E-03  4.08704875940178E-04
 -1.01354022604193E-04  3.73917246910040E-04  5.80349063060004E-05
  3.74575696712499E-04  4.15490057860470E-03 -3.39201179952018E-03
 -3.16661542589258E-03 -4.34014463542987E-03 -6.12941125686269E-04
 -3.17836162864630E-03  3.72797123399109E-03 -8.10795775357268E-03
 -5.69014432405284E-03 -2.21337338778923E-03  4.85480863880391E-03
 -4.17244748203754E-04 -3.36781237459248E-03  1.42512731728819E-03
 -6.92971881312613E-04  1.39492951744753E-03  4.88981183919496E-04
 -3.73220484137203E-03  6.25679850303713E-04  2.04258405892538E-03
 -6.07913781541373E-03  3.11303430074789E-03 -3.34245629365243E-03
  3.74031403846959E-04 -1.67620228257744E-03 -1.63518167181814E-03
 Cartesian forces (hart/bohr); max,rms= 3.66401E-01 1.61942E-01 (free atoms)
  6.06441661060254E-02  1.82644534345770E-01 -1.82434285054059E-01
 -2.55047032663236E-01  1.99374802853779E-01 -1.55996920503087E-01
 -2.72289113313622E-02 -1.03988405266835E-01 -2.05121201506690E-01
 -2.08183494519984E-01 -6.68953704012042E-02 -1.88930302536889E-01
  1.42135334000172E-02 -3.23152642984797E-01 -2.92238920558877E-02
 -1.02315742459764E-01  2.19539710290655E-01  3.66401031185150E-01
 -1.50827956314377E-02 -1.85446663431890E-01 -5.32950401051166E-02
  1.13908958713636E-01  7.69009102909255E-02  1.44813032777584E-01
  1.15677997088660E-01 -2.02001334946487E-01 -1.27405688604996E-01
  7.09381943276155E-02  1.60023663796948E-01  1.35756543151467E-01
  8.10363482094720E-02  1.95188855945284E-02 -6.07778274022168E-02
  7.01126319102391E-02 -2.83458470943740E-01  2.21180549535406E-01
  1.93068331615253E-01 -1.17345852358124E-01 -1.94019501816154E-01
 -1.01069958084781E-01  2.90970906375480E-01  1.73063552589501E-01
 -1.24180440346081E-01 -5.93891956081683E-02  4.29876657412102E-02
  3.40467075115084E-02  1.33049801678271E-01  4.35616902429891E-02
  2.89571082908127E-02 -1.48467263471928E-01 -1.86679312182652E-01
 -1.56894195791511E-02  1.81079819942472E-01  2.51562495762799E-01
  4.55343454052034E-02 -1.98139861455957E-01  1.49236833879092E-01
  1.75081810963616E-02  4.59746481760778E-02  1.40903065464509E-01
 -2.81062359528976E-01  2.01690739769086E-01  3.79867737839488E-02
  2.56804493134176E-01  1.91665086534248E-01 -1.63872590967096E-01
  1.58645793949536E-01  6.88858594865894E-02 -1.50905655544337E-01
 -2.55512022453968E-01  1.93936569487262E-01 -1.37500468471415E-01
  1.28231148983204E-02 -2.28076829891621E-01  2.05836904960303E-01
 -3.06878455604064E-02  4.00889233639845E-02  6.42242261923148E-02
  1.00280118766643E-01  1.06375397728410E-01  2.20265057151497E-01
  1.45612861434911E-01  1.29801781603021E-03 -8.39675446761287E-02
  1.50474669263890E-01 -1.52626304233042E-01 -3.01161509195313E-01
 -1.88616882755102E-01 -3.04718270426288E-01 -9.10853375268425E-02
  1.95614039294618E-01 -7.09346065258424E-02 -2.23288169808488E-02
 -2.61224689502650E-01  1.31622794415408E-01  1.36926472711958E-01

 At the end of Moldyn step     6, POT.En.= -5.71853514710329E+02 Ha.
                              KIN+POT.En.= -5.58504354171335E+02 Ha.

 MOLDYN STEP NUMBER    7  ------------------------------------------------------

     iter   Etot(hartree)      deltaE(h)  residm     vres2    diffor    maxfor
 ETOT  1  -571.62115867164    -5.716E+02 0.000E+00 4.842E+01 3.010E-01 3.876E-01
 ETOT  2  -571.80491976930    -1.838E-01 0.000E+00 3.836E+00 8.806E-02 4.014E-01
 ETOT  3  -571.80765470689    -2.735E-03 0.000E+00 3.401E-01 1.478E-02 4.054E-01
 ETOT  4  -571.80764997173     4.735E-06 0.000E+00 2.236E-01 1.122E-04 4.053E-01
 ETOT  5  -571.80783790387    -1.879E-04 0.000E+00 2.012E-02 2.426E-03 4.060E-01
 ETOT  6  -571.80786662866    -2.872E-05 0.000E+00 1.045E-03 6.868E-04 4.062E-01
 ETOT  7  -571.80787087891    -4.250E-06 0.000E+00 4.686E-04 1.355E-04 4.063E-01
 ETOT  8  -571.80787159027    -7.114E-07 0.000E+00 5.201E-05 1.411E-04 4.062E-01
 ETOT  9  -571.80787184495    -2.547E-07 0.000E+00 2.348E-06 2.288E-05 4.062E-01

 At SCF step    9, etot is converged :
  for the second time, diff in etot=  2.547E-07 < toldfe=  1.000E-06

 Cartesian components of stress tensor (hartree/bohr^3)
  sigma(1 1)=  1.37021438E-02  sigma(3 2)=  5.11379146E-05
  sigma(2 2)=  1.39820967E-02  sigma(3 1)= -1.44734986E-04
  sigma(3 3)=  1.38866854E-02  sigma(2 1)=  4.69332892E-05

 Cartesian coordinates (bohr)
 -1.47893327639114E-01  2.17955971120049E-01 -1.04202995040206E-02
  2.76809374067198E+00  2.94706339104353E+00  5.29378328847600E-01
  3.15120389882486E+00  3.14100037820313E-01  3.17454868684583E+00
  2.33849457728396E-01  2.81726618358536E+00  3.37473822699513E+00
  2.85660392526361E-01  8.13082818077848E-02  5.71511161419656E+00
  2.81165737126141E+00  2.89144415381940E+00  5.90483665817061E+00
  2.84549592549719E+00 -2.28930644058174E-01  9.09330550795873E+00
 -4.05489502481178E-02  2.89346087303220E+00  8.82432815378346E+00
 -4.15830527669601E-02  6.14318109986769E+00  5.33462605770979E-02
  2.93630605761429E+00  8.91356447795645E+00 -5.14048968470799E-02
  3.30272415872349E+00  5.97131126369067E+00  3.05270019741690E+00
  2.34872402108939E-01  9.43002910417624E+00  3.22262607448396E+00
  2.73174178122288E-01  6.41202953017019E+00  6.12827313959012E+00
  2.73496555493525E+00  8.91665201254105E+00  6.21048276856790E+00
  3.06188387148435E+00  5.90979378030010E+00  8.67371425631039E+00
 -8.27142485932180E-02  8.85287236537334E+00  8.52734421703298E+00
  6.19262509997014E+00  6.43568487611044E-02  1.87349420818104E-01
  9.14471569784666E+00  3.21248769449941E+00 -8.61965837897035E-02
  9.54975510291576E+00 -2.76133886851162E-01  2.93156220980823E+00
  5.40741451338667E+00  2.94600474009176E+00  3.24235503922470E+00
  6.42877061542972E+00 -4.43072149258253E-01  5.78296141991691E+00
  9.27687359644695E+00  2.89195700316177E+00  6.03258574209076E+00
  8.98571759889595E+00  2.03419728625469E-02  9.01162173983278E+00
  6.03659842604078E+00  3.24135070762016E+00  8.79434167346940E+00
  5.80759521362951E+00  5.74870338566500E+00 -4.76379200154879E-02
  8.80709852607559E+00  9.22139218663474E+00 -4.82455127417668E-01
  8.66487244110756E+00  5.84919479775290E+00  3.27770764368059E+00
  5.96365704431212E+00  8.79268352324674E+00  3.08808787888247E+00
  5.94938938777300E+00  6.09745070342637E+00  6.04679286046943E+00
  8.78189820838903E+00  9.06146419414825E+00  6.12576886763842E+00
  8.64399673108610E+00  6.19359946365179E+00  8.79720958500345E+00
  6.03909842998023E+00  8.89096784223506E+00  8.89089684995195E+00
 Velocities (bohr/(atomic time unit))
 -2.37962364388534E-03  3.77190327582391E-03 -4.51783544351838E-04
 -4.06544784408200E-03 -6.15963909061772E-04  8.80813217997363E-03
  2.32253267443906E-03  5.15348476075763E-03  2.57614495649789E-03
  3.65727963019352E-03 -3.09924803795334E-03  6.16746553150717E-03
  4.81169820731505E-03  8.67618391637657E-04 -4.84148925584308E-03
 -3.18618573635478E-03 -1.54524097214638E-03 -1.14842036256181E-03
 -2.58362888606422E-03 -4.10294306248410E-03  1.38940671780315E-03
 -5.82078904103382E-04 -1.61851829650402E-03 -2.62047305472436E-03
 -5.46360953482834E-04  1.91280860482045E-03  6.86052108975694E-04
 -8.69288722088781E-04 -1.22425424592063E-03 -6.11659495569076E-04
  5.25699439927819E-03 -4.53149003686025E-04  7.08601253626143E-04
  3.82390030720744E-03  7.08000605230088E-03  3.90941474379586E-03
  4.89415640157955E-03  6.89846571754500E-03  1.86308420825509E-03
 -4.50265210665796E-03 -9.28428104102958E-04  3.68066474387405E-03
  8.20591673956994E-04 -1.59344664133627E-03 -5.53900440149337E-03
 -1.36580883547682E-03 -2.02237154211437E-03 -8.00982467359226E-03
  3.16860703513229E-03  7.81176499960855E-04  2.79309894779606E-03
  2.22674480878298E-03  3.67773189942707E-03 -1.01542927273194E-03
  9.24355862522648E-03 -4.83723179214907E-03 -9.08264732011667E-04
 -9.93273507931464E-03 -8.14105804189938E-04  4.07436395504812E-03
  7.02011354341008E-03 -7.44739799181285E-03 -3.37793782158733E-03
  5.03662729998224E-03 -1.51676073142674E-03  3.25397172953899E-04
 -2.45181851916645E-05  4.04789979921258E-04 -2.11968146742920E-05
  2.46840916297605E-04  4.25583963570686E-03 -3.47781094323236E-03
 -3.17374349891654E-03 -4.44535027201510E-03 -5.06208128074335E-04
 -3.20203143958351E-03  3.73453954680711E-03 -8.12962355221919E-03
 -5.59594690518346E-03 -2.18387065112490E-03  4.93150899744623E-03
 -3.44500098076667E-04 -3.38014496262131E-03  1.37446421048322E-03
 -6.24172533364324E-04  1.32298900500675E-03  3.35103492611657E-04
 -3.82989240170299E-03  4.78699902602323E-04  1.98377564136906E-03
 -5.96173667842469E-03  3.10902945556719E-03 -3.36749594643605E-03
  2.40706929164647E-04 -1.62065670723623E-03 -1.58005686289720E-03
 Cartesian forces (hart/bohr); max,rms= 4.06243E-01 1.56822E-01 (free atoms)
 -2.08716014758503E-02  2.34916196383383E-01 -1.42235691125499E-01
 -2.91662015628532E-01  1.69806882401646E-01 -4.35131710081952E-02
  5.08167700159418E-02 -1.91390576532110E-01 -9.72457391983584E-02
 -1.59927894986264E-01 -1.48347234092944E-01 -9.20812546309349E-02
 -9.19119309558658E-02 -3.17639589202091E-01  4.33814399799922E-02
 -1.71662692721718E-01  2.38814949223551E-01  4.06243352559035E-01
 -1.17856335004401E-01 -1.72159044479250E-01  4.68179813244889E-02
  1.57129166392993E-01  6.35027278145873E-02  4.85068216816026E-02
  1.37285932383853E-01 -1.40239740206627E-01 -1.40418561576495E-01
  3.91466370480994E-02  1.61126284536698E-01  1.24833310660220E-01
 -1.15223825796857E-01  2.32335261635709E-02 -4.81144439291358E-02
  6.43655017121436E-02 -1.37225230386936E-01  2.10304996837390E-01
 -5.17709697991690E-02 -1.44917625786259E-02 -1.89998293266464E-01
 -3.31662969556149E-02  2.57758436781526E-01  2.52685468110245E-01
 -1.28035592638414E-01 -6.12959061294069E-02  1.98825472431532E-01
  1.06741218018232E-01 -3.86236097011091E-02 -1.26042583323729E-01
  8.03717770926183E-02 -8.06707758288216E-02 -1.10002352841260E-01
  7.85008822112812E-02  2.37175186282017E-01  2.57918212777894E-01
 -5.32440086371195E-02 -2.43321923237895E-02  1.62763945973675E-01
  1.79295681957723E-01  3.54265054828501E-02  1.55458479530242E-01
 -1.11713443223953E-01 -8.87048187292749E-03 -4.90757316000575E-02
  1.29927351220424E-01  1.75617582254922E-01 -1.67660688217980E-01
  1.44756656072972E-01  4.94547480244723E-02 -1.61572056519010E-01
 -2.50654543666281E-01  1.67829126086301E-01 -1.71233329457399E-01
 -1.37216523128995E-02 -1.48869408135171E-01  2.19691790666510E-01
 -3.52307369136211E-02 -4.62746163749347E-02 -8.00118380817719E-02
  3.19585012466996E-01  2.87488006880259E-02  3.99691273548411E-02
  1.44399138785538E-01 -2.09598256681566E-02 -1.27774983439606E-01
  1.26357171899869E-01 -1.42607182167213E-01 -3.08931323004441E-01
 -1.63975358667436E-01 -2.79370213868283E-01 -1.58042147561398E-01
  3.18902304958637E-01  2.84970519220483E-02 -4.75861621234115E-02
 -2.66952302853325E-01  1.01459385502798E-01  9.41399510174792E-02

 At the end of Moldyn step     7, POT.En.= -5.71807871844953E+02 Ha.
                              KIN+POT.En.= -5.58458711305959E+02 Ha.

 MOLDYN STEP NUMBER    8  ------------------------------------------------------

     iter   Etot(hartree)      deltaE(h)  residm     vres2    diffor    maxfor
 ETOT  1  -571.53536864135    -5.715E+02 0.000E+00 4.720E+01 3.206E-01 3.532E-01
 ETOT  2  -571.71568537335    -1.803E-01 0.000E+00 3.854E+00 7.673E-02 3.668E-01
 ETOT  3  -571.71855435192    -2.869E-03 0.000E+00 3.316E-01 1.451E-02 3.709E-01
 ETOT  4  -571.71854693526     7.417E-06 0.000E+00 2.266E-01 1.908E-04 3.708E-01
 ETOT  5  -571.71873865995    -1.917E-04 0.000E+00 2.053E-02 2.437E-03 3.715E-01
 ETOT  6  -571.71876857090    -2.991E-05 0.000E+00 1.176E-03 7.364E-04 3.718E-01
 ETOT  7  -571.71877289192    -4.321E-06 0.000E+00 5.194E-04 1.527E-04 3.718E-01
 ETOT  8  -571.71877397356    -1.082E-06 0.000E+00 5.624E-05 1.394E-04 3.718E-01
 ETOT  9  -571.71877432132    -3.478E-07 0.000E+00 2.610E-06 2.299E-05 3.718E-01
 ETOT 10  -571.71877436952    -4.820E-08 0.000E+00 9.383E-07 9.334E-06 3.718E-01

 At SCF step   10, etot is converged :
  for the second time, diff in etot=  4.820E-08 < toldfe=  1.000E-06

 Cartesian components of stress tensor (hartree/bohr^3)
  sigma(1 1)=  1.36791347E-02  sigma(3 2)=  4.04211776E-05
  sigma(2 2)=  1.37088439E-02  sigma(3 1)= -1.03034632E-04
  sigma(3 3)=  1.37414471E-02  sigma(2 1)=  2.54120076E-05

 Cartesian coordinates (bohr)
 -1.71614219250309E-01  2.55043743977503E-01 -1.45731809421994E-02
  2.72821719013200E+00  2.94047893785842E+00  6.17487023612592E-01
  3.17427848001926E+00  3.66071690418009E-01  3.20053247635157E+00
  2.70793366513456E-01  2.78667909479642E+00  3.43658829517202E+00
  3.33965129445475E-01  9.07818009916380E-02  5.66663231681802E+00
  2.78026085055864E+00  2.87540068495926E+00  5.89233307247669E+00
  2.81998284862713E+00 -2.69484843428551E-01  9.10706776026982E+00
 -4.67627229209302E-02  2.87712989879300E+00  8.79802509881365E+00
 -4.73896615641665E-02  6.16264680381128E+00  6.05564091275230E-02
  2.92752208642348E+00  8.90092486481171E+00 -5.78322971108435E-02
  3.35553677993322E+00  5.96672512399321E+00  3.05990154923629E+00
  2.72912158209946E-01  9.50111046286260E+00  3.26115007866637E+00
  3.22200925999748E-01  6.48098595349483E+00  6.14736825163268E+00
  2.69006555604977E+00  8.90672282281308E+00  6.24661395414257E+00
  3.07040674611127E+00  5.89402976566113E+00  8.61787218462012E+00
 -9.66301580619860E-02  8.83276564710723E+00  8.44764105690284E+00
[...]
    12        0.032410773443      0.059489221667      0.031810038564
    13        0.038885478302      0.057497512698      0.016566686981
    14       -0.036880225381     -0.009640511812      0.030246036969
    15        0.007637094712     -0.013018351906     -0.045400197204
    16       -0.011059404923     -0.019088466793     -0.065994834674
    17        0.026826120615      0.007955887648      0.024828778163
    18        0.019624928850      0.030493769177     -0.010166827627
    19        0.076407593112     -0.038995847473     -0.008703309322
    20       -0.082520741421     -0.007116974722      0.033848038413
    21        0.059104159402     -0.061806950631     -0.029481608216
    22        0.040001846053     -0.013876202749      0.003447618268
    23       -0.001021052219      0.002845983521      0.000596929083
    24        0.003509111393      0.034366030996     -0.028961615000
    25       -0.026724169059     -0.035684681581     -0.005412918108
    26       -0.026899699435      0.030721943876     -0.067203979728
    27       -0.046077223395     -0.019899406278      0.039389114010
    28       -0.003936571667     -0.028379887506      0.011611512263
    29       -0.006069256142      0.012320778145      0.004486652486
    30       -0.031178509605      0.006300103262      0.016712310742
    31       -0.049455926725      0.026829573042     -0.028285529969
    32        0.003480315705     -0.014467235959     -0.014496525286

 Cartesian components of stress tensor (hartree/bohr^3)
  sigma(1 1)=  1.33882422E-02  sigma(3 2)= -5.72307716E-06
  sigma(2 2)=  1.33611221E-02  sigma(3 1)= -1.23816010E-04
  sigma(3 3)=  1.37282867E-02  sigma(2 1)=  3.43976689E-05

-Cartesian components of stress tensor (GPa)         [Pressure= -3.9696E+02 GPa]
- sigma(1 1)=  3.93895619E+02  sigma(3 2)= -1.68378715E-01
- sigma(2 2)=  3.93097717E+02  sigma(3 1)= -3.64279216E+00
- sigma(3 3)=  4.03900071E+02  sigma(2 1)=  1.01201419E+00

== END DATASET(S) ==============================================================
================================================================================
  
 -outvars: echo values of variables after computation  --------
     acell    1.2000000000E+01  1.2000000000E+01  1.2000000000E+01 Bohr
       amu    1.08110000E+01
    dielng    5.00000000E-01 Bohr
    diemac    5.00000000E+00
    diemix    5.00000000E-01
     dtion    1.00000000E+01
      ecut    1.00000000E+01 Hartree
    etotal   -5.7121898519E+02
     fcart   -2.5927684953E-01 -1.3368446071E-01 -3.5947634190E-02
              3.5629506248E-01  1.2928278472E-01 -6.2703802356E-02
              2.4684594885E-02 -1.1896423789E-01 -3.9499480368E-02
             -1.9366320659E-01  1.0414280202E-02  9.3773207888E-02
             -8.7646816762E-02 -2.4678619744E-01  2.3709843307E-01
              1.5875807023E-01 -1.3982053066E-02  2.3750794963E-01
             -1.7090457877E-01  2.2599537888E-01  9.3802880380E-02
              9.6326995305E-02  3.3381971886E-02 -6.2250345099E-02
              2.0095098166E-01  1.1678934356E-01 -2.1865471675E-01
              4.3748892190E-02  1.2423272714E-01  7.8811051660E-02
             -6.7307022248E-02  5.1130196099E-02 -1.5823483021E-01
             -7.9087980513E-02 -3.0903352675E-01 -1.1350631877E-01
             -3.5724543164E-01 -3.5246421352E-01 -1.7667237510E-01
              2.8342744324E-01  2.9223900094E-01 -5.6361497663E-02
             -2.1451868592E-01 -1.4547701603E-01 -1.1954913006E-02
              2.3368916689E-01 -1.1293270330E-01  4.0053040413E-01
             -2.7210136555E-03  6.6023573221E-02  2.8472786932E-02
              4.2765718169E-02 -9.6890714312E-02  2.8542464325E-01
             -2.2520845507E-02  3.3387568100E-01  7.0305135297E-02
              7.6282053862E-02  2.3522389109E-01 -2.0280189598E-01
             -2.0053744210E-01  4.0188491320E-01  9.4634338153E-02
             -1.0263376089E-01  2.2954579053E-02 -1.4264629289E-01
             -1.8507153261E-02 -7.0288113498E-02 -1.9661966524E-01
             -1.6154214138E-01 -2.0634417238E-01  1.4589936837E-01
              1.1489930126E-01  1.9552757070E-01  1.5370517712E-01
              2.9338473739E-02 -3.3150973909E-01  8.2518849767E-02
             -7.0290931734E-02 -9.5871542385E-02 -1.1993591479E-01
              1.2968016402E-01  2.6124770245E-01 -1.0083893800E-01
              9.3629502930E-02 -1.7565450793E-01 -3.2727412985E-01
              3.5944188953E-01 -2.2669911390E-01 -1.0717089753E-01
             -6.8386000980E-02  1.0946716579E-01  1.2649480749E-01
             -1.6712844892E-01  2.6911552296E-02  4.0946146620E-03
    ionmov        12
      iscf         5
    istwfk      2
       ixc         0
P    mkmem         1
     natom        32
     nband         1
     ngfft        36      36      36
      nkpt         1
     nstep        50
      nsym         1
     ntime        10
    ntypat         1
       occ  160.000000
    occopt         0
   spgroup         1
    strten    1.3388242230E-02  1.3361122087E-02  1.3728286679E-02
             -5.7230771642E-06 -1.2381600978E-04  3.4397668906E-05
 tfkinfunc         1
    timopt        -1
    toldfe    1.00000000E-06 Hartree
    tsmear    2.57245160E-02 Hartree
     typat    1  1  1  1  1  1  1  1  1  1  1  1  1  1  1  1  1  1  1  1
              1  1  1  1  1  1  1  1  1  1  1  1
       vel   -2.6531617619E-03  3.9896469121E-03 -5.8547056937E-04
             -4.1184613380E-03 -4.4165908563E-04  8.6832269620E-03
              2.4716866772E-03  4.9572727043E-03  2.6039328932E-03
              3.5691793310E-03 -3.3742311011E-03  6.5062296101E-03
              4.6650613766E-03  4.1348500296E-04 -4.6771567832E-03
             -3.3365172970E-03 -1.3848926027E-03 -6.6699002238E-04
             -2.9170126522E-03 -4.1913484881E-03  1.5629622314E-03
             -3.4908258783E-04 -1.5836530598E-03 -2.7427000820E-03
             -2.8222987652E-04  1.9240866057E-03  4.1695847653E-04
             -8.2358450845E-04 -1.0337561080E-03 -4.7857365056E-04
              5.1405599526E-03 -4.2337361399E-04  5.7916370041E-04
              3.8827660746E-03  7.0727681114E-03  4.0650374145E-03
              4.5367626688E-03  6.9431264089E-03  1.6023246100E-03
             -4.3490446602E-03 -5.4989658884E-04  3.9946967673E-03
              6.0661384528E-04 -1.7841479362E-03 -5.4561480846E-03
             -1.0855023737E-03 -2.2571543028E-03 -7.9442506914E-03
              3.3685308717E-03  8.0388091805E-04  2.8265386914E-03
              2.4301014942E-03  3.9052133634E-03 -6.0465897780E-04
              9.1998292366E-03 -4.5815106424E-03 -7.2157618410E-04
             -1.0059576545E-02 -5.9778196212E-04  4.0931006188E-03
              7.1220995515E-03 -7.5088667136E-03 -3.4703077114E-03
              5.0860751645E-03 -1.3893874074E-03  9.9563248826E-05
              8.8741490580E-05  3.8983817091E-04 -3.0233619067E-04
             -6.6139295204E-05  4.3207141776E-03 -3.6172057714E-03
             -3.1910277519E-03 -4.4449199865E-03 -2.3299897015E-04
             -3.2820721043E-03  3.4951299023E-03 -8.1513579428E-03
             -5.3682615416E-03 -2.2780396304E-03  4.8195340004E-03
             -1.1166289438E-04 -3.3309775150E-03  1.1818215593E-03
             -4.7103955132E-04  1.0963139628E-03 -1.4880745356E-04
             -3.7338049619E-03  6.8906901109E-05  1.7627875404E-03
             -5.8908331449E-03  3.3498700634E-03 -3.4411287405E-03
             -7.8992888970E-05 -1.5746564602E-03 -1.5562104987E-03
    xangst   -1.3002889934E-01  1.9728957781E-01 -1.6168327483E-02
              1.3772969936E+00  1.5477658732E+00  4.6521818378E-01
              1.7177476409E+00  2.7351433411E-01  1.7344828736E+00
              2.0052300958E-01  1.4230597041E+00  1.9182760787E+00
              2.5170227193E-01  5.8037140074E-02  2.9228565777E+00
              1.4188216141E+00  1.4990586257E+00  3.1041613651E+00
              1.4488989245E+00 -2.0921250598E-01  4.8425073882E+00
             -3.1973024693E-02  1.4972524886E+00  4.6135813395E+00
             -3.1805236510E-02  3.2908458083E+00  4.0986596929E-02
              1.5357626017E+00  4.6923918620E+00 -3.9104906230E-02
              1.8577631897E+00  3.1504594609E+00  1.6297084719E+00
              2.0573222761E-01  5.1401995151E+00  1.7896273842E+00
              2.4587698216E-01  3.5399619095E+00  3.2804543372E+00
              1.3526772947E+00  4.7014333156E+00  3.3670586578E+00
              1.6362899036E+00  3.0924892550E+00  4.4739871924E+00
             -7.0860989991E-02  4.6404228493E+00  4.3426031022E+00
              3.3455347003E+00  5.0468787825E-02  1.5816631464E-01
              4.8877637248E+00  1.7799347946E+00 -6.4225523128E-02
              5.2480944747E+00 -2.4708560730E-01  1.5336451261E+00
              2.6511396325E+00  1.5429015508E+00  1.8026620516E+00
              3.5513596286E+00 -3.9327014023E-01  2.9878923787E+00
              5.0162243630E+00  1.4994911365E+00  3.1975576794E+00
              4.7556226765E+00  1.9428096789E-02  4.7663967850E+00
              3.1972855132E+00  1.8063130275E+00  4.5786945355E+00
              3.0058143864E+00  2.9475674727E+00 -3.3852185441E-02
              4.5921923481E+00  4.9574628076E+00 -4.2753944565E-01
              4.4695262372E+00  3.0486836294E+00  1.8380558311E+00
              3.1502211423E+00  4.5812553655E+00  1.6617569149E+00
              3.1362193026E+00  3.2530541801E+00  3.2035539976E+00
              4.5659661812E+00  4.8022594590E+00  3.2818396060E+00
              4.4495409630E+00  3.3447843585E+00  4.5832668674E+00
              3.1984110690E+00  4.6711043005E+00  4.6718036410E+00
     xcart   -2.4571900911E-01  3.7282327093E-01 -3.0553710970E-02
              2.6027141215E+00  2.9248536182E+00  8.7913495938E-01
              3.2460726067E+00  5.1686718490E-01  3.2776976133E+00
              3.7893357146E-01  2.6891931114E+00  3.6250164361E+00
              4.7564836098E-01  1.0967430028E-01  5.5233984575E+00
              2.6811842820E+00  2.8328102596E+00  5.8660148524E+00
              2.7380221615E+00 -3.9535433987E-01  9.1510127602E+00
             -6.0420260311E-02  2.8293971552E+00  8.7184052234E+00
             -6.0103186595E-02  6.2187973233E+00  7.7453443314E-02
              2.9021707224E+00  8.8673355274E+00 -7.3897563226E-02
              3.5106636483E+00  5.9535055739E+00  3.0797026883E+00
              3.8877756690E-01  9.7135693519E+00  3.3819056361E+00
              4.6464015866E-01  6.6895585297E+00  6.1991602888E+00
              2.5561896331E+00  8.8844213986E+00  6.3628187366E+00
              3.0921397918E+00  5.8439577608E+00  8.4546105156E+00
             -1.3390786459E-01  8.7691283260E+00  8.2063305669E+00
              6.3221443516E+00  9.5372187249E-02  2.9889101812E-01
              9.2365348422E+00  3.3635892962E+00 -1.2136864945E-01
              9.9174612767E+00 -4.6692412917E-01  2.8981692733E+00
              5.0099278455E+00  2.9156613810E+00  3.4065375877E+00
              6.7110970974E+00 -7.4317286127E-01  5.6462983103E+00
              9.4792902672E+00  2.8336275867E+00  6.0425083082E+00
              8.9868244499E+00  3.6713782214E-02  9.0071845643E+00
              6.0419939885E+00  3.4134369322E+00  8.6524787182E+00
              5.6801659966E+00  5.5700952816E+00 -6.3971359484E-02
              8.6779858873E+00  9.3682470204E+00 -8.0793246328E-01
              8.4461805321E+00  5.7611771253E+00  3.4734221377E+00
              5.9530552170E+00  8.6573179857E+00  3.1402654686E+00
              5.9265955747E+00  6.1473814958E+00  6.0538397075E+00
              8.6284256145E+00  9.0749551965E+00  6.2017780673E+00
              8.4084138371E+00  6.3207264112E+00  8.6611191733E+00
              6.0441209808E+00  8.8271078661E+00  8.8284294281E+00
      xred   -2.0476584093E-02  3.1068605911E-02 -2.5461425809E-03
              2.1689284346E-01  2.4373780152E-01  7.3261246615E-02
              2.7050605056E-01  4.3072265408E-02  2.7314146777E-01
              3.1577797621E-02  2.2409942595E-01  3.0208470301E-01
              3.9637363415E-02  9.1395250230E-03  4.6028320479E-01
              2.2343202350E-01  2.3606752164E-01  4.8883457103E-01
              2.2816851346E-01 -3.2946194989E-02  7.6258439668E-01
             -5.0350216925E-03  2.3578309627E-01  7.2653376861E-01
             -5.0085988830E-03  5.1823311028E-01  6.4544536095E-03
              2.4184756020E-01  7.3894462728E-01 -6.1581302688E-03
              2.9255530402E-01  4.9612546450E-01  2.5664189069E-01
              3.2398130575E-02  8.0946411266E-01  2.8182546967E-01
              3.8720013221E-02  5.5746321081E-01  5.1659669073E-01
              2.1301580276E-01  7.4036844988E-01  5.3023489472E-01
              2.5767831598E-01  4.8699648007E-01  7.0455087630E-01
             -1.1158988716E-02  7.3076069383E-01  6.8386088058E-01
              5.2684536263E-01  7.9476822707E-03  2.4907584844E-02
              7.6971123685E-01  2.8029910801E-01 -1.0114054121E-02
              8.2645510639E-01 -3.8910344097E-02  2.4151410611E-01
              4.1749398712E-01  2.4297178175E-01  2.8387813231E-01
              5.5925809145E-01 -6.1931071773E-02  4.7052485920E-01
              7.8994085560E-01  2.3613563222E-01  5.0354235902E-01
              7.4890203749E-01  3.0594818512E-03  7.5059871369E-01
              5.0349949904E-01  2.8445307769E-01  7.2103989318E-01
              4.7334716638E-01  4.6417460680E-01 -5.3309466236E-03
              7.2316549061E-01  7.8068725170E-01 -6.7327705273E-02
              7.0384837768E-01  4.8009809378E-01  2.8945184481E-01
              4.9608793475E-01  7.2144316547E-01  2.6168878905E-01
              4.9388296455E-01  5.1228179131E-01  5.0448664229E-01
              7.1903546788E-01  7.5624626637E-01  5.1681483894E-01
              7.0070115309E-01  5.2672720093E-01  7.2175993111E-01
              5.0367674840E-01  7.3559232218E-01  7.3570245234E-01
     znucl      5.00000

================================================================================

 Test the timer : 
  a combined call timab(*,1,tsec) + timab(*,2,tsec) is 
- CPU time =    5.8279E-06 sec,    Wall time =    5.8279E-06 sec

- Total cpu        time (s,m,h):         11.8        0.20      0.003
- Total wall clock time (s,m,h):         11.8        0.20      0.003

- For major independent code sections, cpu and wall times (sec),
- as well as % of the total time and number of calls 

- routine                 cpu     %       wall     %      number of calls 
-                                                          (-1=no count)
- forces                 5.013  42.5      5.013  42.5            105
- fourdp                 0.833   7.1      0.832   7.1            431
- ewald                  0.702   6.0      0.704   6.0             11
- stress                 0.625   5.3      0.625   5.3             11
- ewald2                 0.516   4.4      0.515   4.4             11
- timing timab           0.504   4.3      0.504   4.3             12
- invars2                0.167   1.4      0.167   1.4              1
- pspini                 0.055   0.5      0.055   0.5              1
- abinit(2)              0.049   0.4      0.048   0.4              1
- status                 0.045   0.4      0.045   0.4            914
- xc:pot/=fourdp         0.026   0.2      0.025   0.2            116
- scfcv-scprqt           0.009   0.1      0.017   0.1            105
- rwwf                   0.001   0.0      0.000   0.0              1
- vtowfk(ssdiag)         0.000   0.0      0.000   0.0             -1
- vtorho  (1)            0.000   0.0      0.000   0.0            105
- inwffil                0.000   0.0      0.000   0.0              1
- kpgsph                 0.000   0.0      0.000   0.0              2
- getghc-other           0.000   0.0      0.000   0.0             -1
- vtowfk3(contrib)       0.000   0.0      0.000   0.0             -1
- cgwf3-O(npw)           0.000   0.0      0.000   0.0             -1
- 50   others            0.000   0.0      0.000   0.0

- subtotal               8.545  72.5      8.550  72.5

 Partitioning of abinit 
- abinit                11.791 100.0     11.791 100.0              1
 
- abinit(1)              0.017   0.1      0.017   0.1              1
- abinit(2)              0.049   0.4      0.048   0.4              1
- invars2m               0.168   1.4      0.168   1.4              1
- abinit(4)              0.001   0.0      0.002   0.0              1
- abinit(5)              0.177   1.5      0.176   1.5              1
- driver                10.873  92.2     10.874  92.2              1
- abinit(6)              0.002   0.0      0.002   0.0              1
- timing timab           0.504   4.3      0.504   4.3             12

- subtotal              11.791 100.0     11.791 100.0

 Partitioning of driver 
- driver                10.873  92.2     10.874  92.2              1
 
- gstate                10.873  92.2     10.873  92.2              1

- subtotal              10.873  92.2     10.873  92.2

 Partitioning of gstate 
- gstate                10.873  92.2     10.873  92.2              1
 
- gstate->kpgsph         0.000   0.0      0.000   0.0              2
- pspini                 0.055   0.5      0.055   0.5              1
- gstate  (2)            0.015   0.1      0.014   0.1              1
- test_ionmov           10.798  91.6     10.799  91.6              1
- gstate  (3)            0.005   0.0      0.005   0.0              1

- subtotal              10.873  92.2     10.873  92.2

 Partitioning of scfcv 
- scfcv                 10.767  91.3     10.769  91.3             11
 
- scfcv   (1)            0.000   0.0      0.000   0.0             11
- setvtr                 0.843   7.1      0.846   7.2             11
- scfcv-read             0.001   0.0      0.003   0.0            105
- vtorho                 2.451  20.8      2.439  20.7            105
- etotfor/=forces        5.013  42.5      5.015  42.5            210
- scfcv-scprqt           0.009   0.1      0.017   0.1            105
- newvtr/newrho          0.860   7.3      0.858   7.3             94
- scfcv   (6)            0.663   5.6      0.662   5.6             22
- stress                 0.625   5.3      0.625   5.3             11

- subtotal              10.465  88.8     10.465  88.8

 Partitioning of etotfor/rhotov 
- etotfor/=forces        5.013  42.5      5.015  42.5            210
- rhotov                 0.441   3.7      0.443   3.8            105
- forces                 5.013  42.5      5.013  42.5            105

- subtotal              10.467  88.8     10.471  88.8

 Partitioning of vtorho 
- vtorho                 2.451  20.8      2.439  20.7            105
 
- vtorho  (1)            0.000   0.0      0.000   0.0            105
- vtorho(symrhg)         0.235   2.0      0.233   2.0            105

- subtotal               0.235   2.0      0.233   2.0

 Partitioning of sg_fourwf (disabled) 



 Additional information 
- total timab            0.521   4.4      0.521   4.4          89325
- mklocl(2)              1.392  11.8      1.395  11.8            105
- status                 0.045   0.4      0.045   0.4            914


 Detailed analysis of some time consuming routines 
                          tcpu    ncalls  tcpu/ncalls    ndata tcpu/ncalls/ndata
                         (sec)                (msec)              (microsec)
- fourwf(pot)            0.000         0
- fourwf(den)            0.000         0
- fourdp                 0.833       431       1.933     46656       0.041
- nonlop(apply)          0.000         0
- nonlop(forces)         0.000         0
- nonlop(forstr)         0.000         0
- projbd                 0.000         0
- xc:pot/=fourdp         0.026       116       0.224     46656       0.005

================================================================================

 Calculation completed.
.Delivered  117 WARNINGs and   3 COMMENTs to log file.
+Overall time at end (sec) : cpu=         11.8  wall=         11.8
