
.Version 5.6.3  of ABINIT 
.(sequential version, prepared for a x86_64_linux_gcc4.3 computer) 

.Copyright (C) 1998-2008 ABINIT group . 
 ABINIT comes with ABSOLUTELY NO WARRANTY.
 It is free software, and you are welcome to redistribute it
 under certain conditions (GNU General Public License,
 see ~abinit/COPYING or http://www.gnu.org/copyleft/gpl.txt).

 ABINIT is a project of the Universite Catholique de Louvain,
 Corning Inc. and other collaborators, see ~abinit/doc/developers/contributors.txt .
 Please read ~abinit/doc/users/acknowledgments.html for suggested
 acknowledgments of the ABINIT effort.
 For more information, see http://www.abinit.org .

.Starting date : Thu  6 Nov 2008.
  
- input  file    -> /home/gonze/ABINIT/ABINITv5.6.3/test_gcc43/5.6.3-private/tests/v4/Input/t99.in
- output file    -> t99.out
- root for input  files -> t99i
- root for output files -> t99o


 Symmetries : the unit cell is not primitive
================================================================================
 Values of the parameters that define the memory need of the present run
   intxc =         0  ionmov =         0    iscf =         5 xclevel =         1
  lmnmax =         2   lnmax =         2   mband =        71  mffmem =         1
P  mgfft =        24   mkmem =         1 mpssoang=         3     mpw =        38
  mqgrid =      3001   natom =        20    nfft =      1536    nkpt =         1
  nloalg =         4  nspden =         2 nspinor =         1  nsppol =         1
    nsym =        64  n1xccc =      2501  ntypat =         2  occopt =         1
================================================================================
P This job should need less than                       1.800 Mbytes of memory.
  Rough estimation (10% accuracy) of disk space for files :
  WF disk file :      0.043 Mbytes ; DEN or POT disk file :      0.014 Mbytes.
================================================================================

 -outvars: echo values of preprocessed input variables --------
     acell    2.4450000000E+01  2.4450000000E+01  2.4450000000E+01 Bohr
       amu    5.58470000E+01  1.40067400E+01
      ecut    1.00000000E+00 Hartree
      iscf         5
    istwfk      2
P    mkmem         1
     natom        20
     nband        71
     ngfft         8      24       8
      nkpt         1
     nline         1
    nspden         2
     nstep         1
      nsym        64
    ntypat         2
       occ    2.000000  2.000000  2.000000  2.000000  2.000000  2.000000
              2.000000  2.000000  2.000000  2.000000  2.000000  2.000000
              2.000000  2.000000  2.000000  2.000000  2.000000  2.000000
              2.000000  2.000000  2.000000  2.000000  2.000000  2.000000
              2.000000  2.000000  2.000000  2.000000  2.000000  2.000000
              2.000000  2.000000  2.000000  2.000000  2.000000  2.000000
              2.000000  2.000000  2.000000  2.000000  2.000000  2.000000
              2.000000  2.000000  2.000000  2.000000  2.000000  2.000000
              2.000000  2.000000  2.000000  2.000000  2.000000  2.000000
              2.000000  2.000000  2.000000  2.000000  2.000000  2.000000
              2.000000  2.000000  2.000000  2.000000  2.000000  2.000000
              2.000000  2.000000  0.000000  0.000000  0.000000
 prtdensph         1
    prtvol        -1
     rprim    3.4500000000E-01  0.0000000000E+00  0.0000000000E+00
              0.0000000000E+00  1.0000000000E+00  0.0000000000E+00
              0.0000000000E+00  0.0000000000E+00  3.4500000000E-01
    spinat    0.0000000000E+00  0.0000000000E+00  5.0000000000E+00
              0.0000000000E+00  0.0000000000E+00  5.0000000000E+00
              0.0000000000E+00  0.0000000000E+00  5.0000000000E+00
              0.0000000000E+00  0.0000000000E+00  5.0000000000E+00
              0.0000000000E+00  0.0000000000E+00  5.0000000000E+00
              0.0000000000E+00  0.0000000000E+00  5.0000000000E+00
              0.0000000000E+00  0.0000000000E+00 -5.0000000000E+00
              0.0000000000E+00  0.0000000000E+00 -5.0000000000E+00
              0.0000000000E+00  0.0000000000E+00 -5.0000000000E+00
              0.0000000000E+00  0.0000000000E+00 -5.0000000000E+00
              0.0000000000E+00  0.0000000000E+00 -5.0000000000E+00
              0.0000000000E+00  0.0000000000E+00 -5.0000000000E+00
              0.0000000000E+00  0.0000000000E+00  0.0000000000E+00
              0.0000000000E+00  0.0000000000E+00  0.0000000000E+00
              0.0000000000E+00  0.0000000000E+00  0.0000000000E+00
              0.0000000000E+00  0.0000000000E+00  0.0000000000E+00
              0.0000000000E+00  0.0000000000E+00  0.0000000000E+00
              0.0000000000E+00  0.0000000000E+00  0.0000000000E+00
              0.0000000000E+00  0.0000000000E+00  0.0000000000E+00
              0.0000000000E+00  0.0000000000E+00  0.0000000000E+00
    symafm    1  1 -1  -1  1  1  -1 -1  1       1 -1 -1   1  1 -1  -1  1  1
             -1 -1  1   1 -1 -1   1  1 -1      -1  1  1  -1 -1  1   1 -1 -1
              1  1 -1  -1  1  1  -1 -1  1       1 -1 -1   1  1 -1  -1  1  1
             -1 -1  1   1 -1 -1   1  1 -1      -1
    symrel    1  0  0   0  1  0   0  0  1       1  0  0   0  1  0   0  0  1
              1  0  0   0  1  0   0  0  1       1  0  0   0  1  0   0  0  1
             -1  0  0   0 -1  0   0  0 -1      -1  0  0   0 -1  0   0  0 -1
             -1  0  0   0 -1  0   0  0 -1      -1  0  0   0 -1  0   0  0 -1
              1  0  0   0 -1  0   0  0 -1       1  0  0   0 -1  0   0  0 -1
              1  0  0   0 -1  0   0  0 -1       1  0  0   0 -1  0   0  0 -1
             -1  0  0   0  1  0   0  0  1      -1  0  0   0  1  0   0  0  1
             -1  0  0   0  1  0   0  0  1      -1  0  0   0  1  0   0  0  1
             -1  0  0   0  1  0   0  0 -1      -1  0  0   0  1  0   0  0 -1
             -1  0  0   0  1  0   0  0 -1      -1  0  0   0  1  0   0  0 -1
              1  0  0   0 -1  0   0  0  1       1  0  0   0 -1  0   0  0  1
              1  0  0   0 -1  0   0  0  1       1  0  0   0 -1  0   0  0  1
             -1  0  0   0 -1  0   0  0  1      -1  0  0   0 -1  0   0  0  1
             -1  0  0   0 -1  0   0  0  1      -1  0  0   0 -1  0   0  0  1
              1  0  0   0  1  0   0  0 -1       1  0  0   0  1  0   0  0 -1
              1  0  0   0  1  0   0  0 -1       1  0  0   0  1  0   0  0 -1
              0  0  1   0  1  0   1  0  0       0  0  1   0  1  0   1  0  0
              0  0  1   0  1  0   1  0  0       0  0  1   0  1  0   1  0  0
              0  0 -1   0 -1  0  -1  0  0       0  0 -1   0 -1  0  -1  0  0
              0  0 -1   0 -1  0  -1  0  0       0  0 -1   0 -1  0  -1  0  0
              0  0  1   0 -1  0  -1  0  0       0  0  1   0 -1  0  -1  0  0
              0  0  1   0 -1  0  -1  0  0       0  0  1   0 -1  0  -1  0  0
              0  0 -1   0  1  0   1  0  0       0  0 -1   0  1  0   1  0  0
              0  0 -1   0  1  0   1  0  0       0  0 -1   0  1  0   1  0  0
              0  0 -1   0  1  0  -1  0  0       0  0 -1   0  1  0  -1  0  0
              0  0 -1   0  1  0  -1  0  0       0  0 -1   0  1  0  -1  0  0
              0  0  1   0 -1  0   1  0  0       0  0  1   0 -1  0   1  0  0
              0  0  1   0 -1  0   1  0  0       0  0  1   0 -1  0   1  0  0
              0  0 -1   0 -1  0   1  0  0       0  0 -1   0 -1  0   1  0  0
              0  0 -1   0 -1  0   1  0  0       0  0 -1   0 -1  0   1  0  0
              0  0  1   0  1  0  -1  0  0       0  0  1   0  1  0  -1  0  0
              0  0  1   0  1  0  -1  0  0       0  0  1   0  1  0  -1  0  0
     tnons    0.0000000  0.0000000  0.0000000     0.5000000  0.0000000  0.5000000
              0.5000000  0.5000000  0.0000000     0.0000000  0.5000000  0.5000000
              0.0000000  0.0000000  0.0000000     0.5000000  0.0000000  0.5000000
              0.5000000  0.5000000  0.0000000     0.0000000  0.5000000  0.5000000
              0.0000000  0.0000000  0.0000000     0.5000000  0.0000000  0.5000000
              0.5000000  0.5000000  0.0000000     0.0000000  0.5000000  0.5000000
              0.0000000  0.0000000  0.0000000     0.5000000  0.0000000  0.5000000
              0.5000000  0.5000000  0.0000000     0.0000000  0.5000000  0.5000000
              0.0000000  0.0000000  0.0000000     0.5000000  0.0000000  0.5000000
              0.5000000  0.5000000  0.0000000     0.0000000  0.5000000  0.5000000
              0.0000000  0.0000000  0.0000000     0.5000000  0.0000000  0.5000000
              0.5000000  0.5000000  0.0000000     0.0000000  0.5000000  0.5000000
              0.0000000  0.0000000  0.0000000     0.5000000  0.0000000  0.5000000
              0.5000000  0.5000000  0.0000000     0.0000000  0.5000000  0.5000000
              0.0000000  0.0000000  0.0000000     0.5000000  0.0000000  0.5000000
              0.5000000  0.5000000  0.0000000     0.0000000  0.5000000  0.5000000
              0.0000000  0.0000000  0.0000000     0.5000000  0.0000000  0.5000000
              0.5000000  0.5000000  0.0000000     0.0000000  0.5000000  0.5000000
              0.0000000  0.0000000  0.0000000     0.5000000  0.0000000  0.5000000
              0.5000000  0.5000000  0.0000000     0.0000000  0.5000000  0.5000000
              0.0000000  0.0000000  0.0000000     0.5000000  0.0000000  0.5000000
              0.5000000  0.5000000  0.0000000     0.0000000  0.5000000  0.5000000
              0.0000000  0.0000000  0.0000000     0.5000000  0.0000000  0.5000000
              0.5000000  0.5000000  0.0000000     0.0000000  0.5000000  0.5000000
              0.0000000  0.0000000  0.0000000     0.5000000  0.0000000  0.5000000
              0.5000000  0.5000000  0.0000000     0.0000000  0.5000000  0.5000000
              0.0000000  0.0000000  0.0000000     0.5000000  0.0000000  0.5000000
              0.5000000  0.5000000  0.0000000     0.0000000  0.5000000  0.5000000
              0.0000000  0.0000000  0.0000000     0.5000000  0.0000000  0.5000000
              0.5000000  0.5000000  0.0000000     0.0000000  0.5000000  0.5000000
              0.0000000  0.0000000  0.0000000     0.5000000  0.0000000  0.5000000
              0.5000000  0.5000000  0.0000000     0.0000000  0.5000000  0.5000000
    toldfe    1.00000000E-06 Hartree
     typat    1  1  1  1  1  1  1  1  1  1  1  1  2  2  2  2  2  2  2  2
    xangst    0.0000000000E+00  0.0000000000E+00  0.0000000000E+00
              0.0000000000E+00  4.3127942500E+00  0.0000000000E+00
              0.0000000000E+00  8.6255885000E+00  0.0000000000E+00
              2.2318710244E+00  0.0000000000E+00  2.2318710244E+00
              2.2318710244E+00  4.3127942500E+00  2.2318710244E+00
              2.2318710244E+00  8.6255885000E+00  2.2318710244E+00
              2.2318710244E+00  2.1563971250E+00  0.0000000000E+00
              2.2318710244E+00  6.4691913750E+00  0.0000000000E+00
              2.2318710244E+00  1.0781985625E+01  0.0000000000E+00
              0.0000000000E+00  2.1563971250E+00  2.2318710244E+00
              0.0000000000E+00  6.4691913750E+00  2.2318710244E+00
              0.0000000000E+00  1.0781985625E+01  2.2318710244E+00
              0.0000000000E+00  2.1563971250E+00  0.0000000000E+00
              2.2318710244E+00  4.3127942500E+00  0.0000000000E+00
              2.2318710244E+00  8.6255885000E+00  0.0000000000E+00
              0.0000000000E+00  1.0781985625E+01  0.0000000000E+00
              2.2318710244E+00  2.1563971250E+00  2.2318710244E+00
              0.0000000000E+00  4.3127942500E+00  2.2318710244E+00
              0.0000000000E+00  8.6255885000E+00  2.2318710244E+00
              2.2318710244E+00  1.0781985625E+01  2.2318710244E+00
     xcart    0.0000000000E+00  0.0000000000E+00  0.0000000000E+00
              0.0000000000E+00  8.1500000000E+00  0.0000000000E+00
              0.0000000000E+00  1.6300000000E+01  0.0000000000E+00
              4.2176250000E+00  0.0000000000E+00  4.2176250000E+00
              4.2176250000E+00  8.1500000000E+00  4.2176250000E+00
              4.2176250000E+00  1.6300000000E+01  4.2176250000E+00
              4.2176250000E+00  4.0750000000E+00  0.0000000000E+00
              4.2176250000E+00  1.2225000000E+01  0.0000000000E+00
              4.2176250000E+00  2.0375000000E+01  0.0000000000E+00
              0.0000000000E+00  4.0750000000E+00  4.2176250000E+00
              0.0000000000E+00  1.2225000000E+01  4.2176250000E+00
              0.0000000000E+00  2.0375000000E+01  4.2176250000E+00
              0.0000000000E+00  4.0750000000E+00  0.0000000000E+00
              4.2176250000E+00  8.1500000000E+00  0.0000000000E+00
              4.2176250000E+00  1.6300000000E+01  0.0000000000E+00
              0.0000000000E+00  2.0375000000E+01  0.0000000000E+00
              4.2176250000E+00  4.0750000000E+00  4.2176250000E+00
              0.0000000000E+00  8.1500000000E+00  4.2176250000E+00
              0.0000000000E+00  1.6300000000E+01  4.2176250000E+00
              4.2176250000E+00  2.0375000000E+01  4.2176250000E+00
      xred    0.0000000000E+00  0.0000000000E+00  0.0000000000E+00
              0.0000000000E+00  3.3333333333E-01  0.0000000000E+00
              0.0000000000E+00  6.6666666667E-01  0.0000000000E+00
              5.0000000000E-01  0.0000000000E+00  5.0000000000E-01
              5.0000000000E-01  3.3333333333E-01  5.0000000000E-01
              5.0000000000E-01  6.6666666667E-01  5.0000000000E-01
              5.0000000000E-01  1.6666666667E-01  0.0000000000E+00
              5.0000000000E-01  5.0000000000E-01  0.0000000000E+00
              5.0000000000E-01  8.3333333333E-01  0.0000000000E+00
              0.0000000000E+00  1.6666666667E-01  5.0000000000E-01
              0.0000000000E+00  5.0000000000E-01  5.0000000000E-01
              0.0000000000E+00  8.3333333333E-01  5.0000000000E-01
              0.0000000000E+00  1.6666666667E-01  0.0000000000E+00
              5.0000000000E-01  3.3333333333E-01  0.0000000000E+00
              5.0000000000E-01  6.6666666667E-01  0.0000000000E+00
              0.0000000000E+00  8.3333333333E-01  0.0000000000E+00
              5.0000000000E-01  1.6666666667E-01  5.0000000000E-01
              0.0000000000E+00  3.3333333333E-01  5.0000000000E-01
              0.0000000000E+00  6.6666666667E-01  5.0000000000E-01
              5.0000000000E-01  8.3333333333E-01  5.0000000000E-01
     znucl     26.00000    7.00000

================================================================================

 chkinp: Checking input parameters for consistency.
