
 Version 4.6.0  of ABINIT 
 (sequential version, prepared for a P6/Linux computer) 

 Copyright (C) 1998-2005 ABINIT group . 
 ABINIT comes with ABSOLUTELY NO WARRANTY.
 It is free software, and you are welcome to redistribute it
 under certain conditions (GNU General Public License,
 see ~abinit/COPYING or http://www.gnu.org/copyleft/gpl.txt).

 ABINIT is a project of the Universite Catholique de Louvain,
 Corning Inc. and other collaborators, see ~abinit/doc/developers/contributors.
 Please read ~abinit/doc/users/acknowledgments.html for suggested
 acknowledgments of the ABINIT effort.
 For more information, see http://www.abinit.org .

 Starting date : Fri 15 Jul 2005.
  
- input  file    -> ../t9.in
- output file    -> t95.out
- root for input  files -> t95.i
- root for output files -> t95.o


 Symmetries : space group Fd -3 m (#227); Bravais cF (face-center cubic)
================================================================================
 Values of the parameters that define the memory need of the present run
   intxc =         1  ionmov =         0    iscf =         5     ixc =         1
  lmnmax =         4   lnmax =         4   mband =         5  mffmem =         1
P  mgfft =        45   mkmem =         2 mpssoang=         3     mpw =      3182
  mqgrid =      1201   natom =         2    nfft =     91125    nkpt =         2
  nloalg =         4  nspden =         1 nspinor =         1  nsppol =         1
    nsym =        48  n1xccc =      2501  ntypat =         1  occopt =         1
================================================================================
P This job should need less than                      21.878 Mbytes of memory.
  Rough estimation (10% accuracy) of disk space for files :
  WF disk file :      0.488 Mbytes ; DEN or POT disk file :      0.697 Mbytes.
================================================================================

 -outvars: echo values of preprocessed input variables --------
     acell    1.0180000000E+01  1.0180000000E+01  1.0180000000E+01 Bohr
       amu    2.80855000E+01
    diemac    1.20000000E+01
      ecut    4.00000000E+01 Hartree
     intxc         1
       kpt    2.50000000E-01  2.50000000E-01  2.50000000E-01
             -2.50000000E-01  2.50000000E-01  2.50000000E-01
   kptrlen    1.43966941E+01
    kptopt         1
  kptrlatt    2  0  0   0  2  0   0  0  2
P    mkmem         2
     natom         2
     nband         5
     ngfft        45      45      45
      nkpt         2
     nstep         2
      nsym        48
    ntypat         1
       occ    2.000000  2.000000  2.000000  2.000000  0.000000
     rprim    0.0000000000E+00  5.0000000000E-01  5.0000000000E-01
              5.0000000000E-01  0.0000000000E+00  5.0000000000E-01
              5.0000000000E-01  5.0000000000E-01  0.0000000000E+00
    shiftk    5.00000000E-01  5.00000000E-01  5.00000000E-01
   spgroup       227
    symrel    1  0  0   0  1  0   0  0  1      -1  0  0   0 -1  0   0  0 -1
              0 -1  1   0 -1  0   1 -1  0       0  1 -1   0  1  0  -1  1  0
             -1  0  0  -1  0  1  -1  1  0       1  0  0   1  0 -1   1 -1  0
              0  1 -1   1  0 -1   0  0 -1       0 -1  1  -1  0  1   0  0  1
             -1  0  0  -1  1  0  -1  0  1       1  0  0   1 -1  0   1  0 -1
              0 -1  1   1 -1  0   0 -1  0       0  1 -1  -1  1  0   0  1  0
              1  0  0   0  0  1   0  1  0      -1  0  0   0  0 -1   0 -1  0
              0  1 -1   0  0 -1   1  0 -1       0 -1  1   0  0  1  -1  0  1
             -1  0  1  -1  1  0  -1  0  0       1  0 -1   1 -1  0   1  0  0
              0 -1  0   1 -1  0   0 -1  1       0  1  0  -1  1  0   0  1 -1
              1  0 -1   0  0 -1   0  1 -1      -1  0  1   0  0  1   0 -1  1
              0  1  0   0  0  1   1  0  0       0 -1  0   0  0 -1  -1  0  0
              1  0 -1   0  1 -1   0  0 -1      -1  0  1   0 -1  1   0  0  1
              0 -1  0   0 -1  1   1 -1  0       0  1  0   0  1 -1  -1  1  0
             -1  0  1  -1  0  0  -1  1  0       1  0 -1   1  0  0   1 -1  0
              0  1  0   1  0  0   0  0  1       0 -1  0  -1  0  0   0  0 -1
              0  0 -1   0  1 -1   1  0 -1       0  0  1   0 -1  1  -1  0  1
              1 -1  0   0 -1  1   0 -1  0      -1  1  0   0  1 -1   0  1  0
              0  0  1   1  0  0   0  1  0       0  0 -1  -1  0  0   0 -1  0
             -1  1  0  -1  0  0  -1  0  1       1 -1  0   1  0  0   1  0 -1
              0  0  1   0  1  0   1  0  0       0  0 -1   0 -1  0  -1  0  0
              1 -1  0   0 -1  0   0 -1  1      -1  1  0   0  1  0   0  1 -1
              0  0 -1   1  0 -1   0  1 -1       0  0  1  -1  0  1   0 -1  1
             -1  1  0  -1  0  1  -1  0  0       1 -1  0   1  0 -1   1  0  0
     tnons    0.0000000  0.0000000  0.0000000     0.2500000  0.2500000  0.2500000
              0.0000000  0.0000000  0.0000000     0.2500000  0.2500000  0.2500000
              0.0000000  0.0000000  0.0000000     0.2500000  0.2500000  0.2500000
              0.0000000  0.0000000  0.0000000     0.2500000  0.2500000  0.2500000
              0.0000000  0.0000000  0.0000000     0.2500000  0.2500000  0.2500000
              0.0000000  0.0000000  0.0000000     0.2500000  0.2500000  0.2500000
              0.0000000  0.0000000  0.0000000     0.2500000  0.2500000  0.2500000
              0.0000000  0.0000000  0.0000000     0.2500000  0.2500000  0.2500000
              0.0000000  0.0000000  0.0000000     0.2500000  0.2500000  0.2500000
              0.0000000  0.0000000  0.0000000     0.2500000  0.2500000  0.2500000
              0.0000000  0.0000000  0.0000000     0.2500000  0.2500000  0.2500000
              0.0000000  0.0000000  0.0000000     0.2500000  0.2500000  0.2500000
              0.0000000  0.0000000  0.0000000     0.2500000  0.2500000  0.2500000
              0.0000000  0.0000000  0.0000000     0.2500000  0.2500000  0.2500000
              0.0000000  0.0000000  0.0000000     0.2500000  0.2500000  0.2500000
              0.0000000  0.0000000  0.0000000     0.2500000  0.2500000  0.2500000
              0.0000000  0.0000000  0.0000000     0.2500000  0.2500000  0.2500000
              0.0000000  0.0000000  0.0000000     0.2500000  0.2500000  0.2500000
              0.0000000  0.0000000  0.0000000     0.2500000  0.2500000  0.2500000
              0.0000000  0.0000000  0.0000000     0.2500000  0.2500000  0.2500000
              0.0000000  0.0000000  0.0000000     0.2500000  0.2500000  0.2500000
              0.0000000  0.0000000  0.0000000     0.2500000  0.2500000  0.2500000
              0.0000000  0.0000000  0.0000000     0.2500000  0.2500000  0.2500000
              0.0000000  0.0000000  0.0000000     0.2500000  0.2500000  0.2500000
    toldfe    1.00000000E-06 Hartree
     typat    1  1
       wtk      0.25000    0.75000
    xangst    0.0000000000E+00  0.0000000000E+00  0.0000000000E+00
              1.3467560015E+00  1.3467560015E+00  1.3467560015E+00
     xcart    0.0000000000E+00  0.0000000000E+00  0.0000000000E+00
              2.5450000000E+00  2.5450000000E+00  2.5450000000E+00
      xred    0.0000000000E+00  0.0000000000E+00  0.0000000000E+00
              2.5000000000E-01  2.5000000000E-01  2.5000000000E-01
     znucl     14.00000

================================================================================

 chkinp: Checking input parameters for consistency.

================================================================================
== DATASET  1 ==================================================================

 Real(R)+Recip(G) space primitive vectors, cartesian coordinates (Bohr,Bohr^-1):
 R(1)=  0.0000000  5.0900000  5.0900000  G(1)= -0.0982318  0.0982318  0.0982318
 R(2)=  5.0900000  0.0000000  5.0900000  G(2)=  0.0982318 -0.0982318  0.0982318
 R(3)=  5.0900000  5.0900000  0.0000000  G(3)=  0.0982318  0.0982318 -0.0982318
 Unit cell volume ucvol=  2.6374446E+02 bohr^3
 Angles (23,13,12)=  6.00000000E+01  6.00000000E+01  6.00000000E+01 degrees

 getcut: wavevector=  0.0000  0.0000  0.0000  ngfft=  45  45  45
         ecut(hartree)=     40.000   => boxcut(ratio)=   2.14696

--- Pseudopotential description ------------------------------------------------
- pspini: atom type   1  psp file is ../../Psps_for_tests/14si.psp
- pspatm: opening atomic psp file    ../../Psps_for_tests/14si.psp
   Si  Fri Oct 08 11:18:59 1993
  14.00000   4.00000    930920                znucl, zion, pspdat
    1    1    2    2      2001   0.00050      pspcod,pspxc,lmax,lloc,mmax,r2well
    0  19.464  25.000    2   1.8971118        l,e99.0,e99.9,nproj,rcpsp
   0.00112760   6.14571089   4.47651660  29.74712295     rms, ekb1, ekb2, epsatm
    1  21.459  28.812    2   1.8971118        l,e99.0,e99.9,nproj,rcpsp
   0.00119946   3.20906540   2.09352485  19.11150542     rms, ekb1, ekb2, epsatm
    2   8.223  21.459    0   1.8971118        l,e99.0,e99.9,nproj,rcpsp
   0.00098688   0.00000000   0.00000000  -3.97301006     rms, ekb1, ekb2, epsatm
    1.70000000000000    0.22513330685109    0.96523597101781   rchrg,fchrg,qchrg
 pspatm: epsatm=   -3.97301006
         --- l  ekb(1:nproj) -->
             0    6.145711    4.476517
             1    3.209065    2.093525
 pspatm: atomic psp has been read  and splines computed

  -6.35681610E+01                                ecore*ucvol(ha*bohr**3)
--------------------------------------------------------------------------------

P newkpt: treating      5 bands with npw=    3182 for ikpt=   1
P newkpt: treating      5 bands with npw=    3182 for ikpt=   2

 setup2: Arith. and geom. avg. npw (full set) are    3182.000    3182.000

================================================================================

     iter   Etot(hartree)      deltaE(h)  residm     vres2    diffor    maxfor
 ETOT  1  -8.6923988089269    -8.692E+00 1.031E-02 7.361E+01 0.000E+00 0.000E+00
 ETOT  2  -8.6999455440192    -7.547E-03 6.759E-05 1.906E+00 0.000E+00 0.000E+00

 Cartesian components of stress tensor (hartree/bohr^3)
  sigma(1 1)= -5.88877920E-05  sigma(3 2)=  0.00000000E+00
  sigma(2 2)= -5.88877920E-05  sigma(3 1)=  0.00000000E+00
  sigma(3 3)= -5.88877920E-05  sigma(2 1)=  0.00000000E+00


 scprqt:  WARNING -
  nstep=    2 was not enough SCF cycles to converge;
  maximum energy difference=  7.547E-03 exceeds toldfe=  1.000E-06

================================================================================

 ----iterations are completed or convergence reached----

 Mean square residual over all n,k,spin=   7.2334E-06; max=  6.7591E-05
   0.2500  0.2500  0.2500    1  6.75908E-05 kpt; spin; max resid(k); each band:
 2.12E-07 1.23E-06 1.94E-08 2.81E-06 6.76E-05
  -0.2500  0.2500  0.2500    1  4.31461E-07 kpt; spin; max resid(k); each band:
 8.62E-09 6.88E-09 1.78E-08 5.61E-09 4.31E-07
 reduced coordinates (array xred) for    2 atoms
       0.000000000000      0.000000000000      0.000000000000
       0.250000000000      0.250000000000      0.250000000000
 rms dE/dt=  0.0000E+00; max dE/dt=  0.0000E+00; dE/dt below (all hartree)
    1       0.000000000000      0.000000000000      0.000000000000
    2       0.000000000000      0.000000000000      0.000000000000

 cartesian coordinates (angstrom) at end:
    1      0.00000000000000     0.00000000000000     0.00000000000000
    2      1.34675600148600     1.34675600148600     1.34675600148600

 cartesian forces (hartree/bohr) at end:
    1      0.00000000000000     0.00000000000000     0.00000000000000
    2      0.00000000000000     0.00000000000000     0.00000000000000
 frms,max,avg= 0.0000000E+00 0.0000000E+00   0.000E+00  0.000E+00  0.000E+00 h/b

 cartesian forces (eV/Angstrom) at end:
    1      0.00000000000000     0.00000000000000     0.00000000000000
    2      0.00000000000000     0.00000000000000     0.00000000000000
 frms,max,avg= 0.0000000E+00 0.0000000E+00   0.000E+00  0.000E+00  0.000E+00 e/A
 length scales= 10.180000000000 10.180000000000 10.180000000000 bohr
              =  5.387024005944  5.387024005944  5.387024005944 angstroms
 Fermi (or HOMO) energy (hartree) =   0.23457   Average Vxc (hartree)=  -0.35224
 Eigenvalues (hartree) for nkpt=   2  k points:
 kpt#   1, nband=  5, wtk=  0.25000, kpt=  0.2500  0.2500  0.2500 (reduced coord)
  -0.15260   0.11651   0.23457   0.23457   0.33731
 kpt#   2, nband=  5, wtk=  0.75000, kpt= -0.2500  0.2500  0.2500 (reduced coord)
  -0.08054   0.02561   0.12993   0.18018   0.31680

,Min el dens=  3.1992E-03 el/bohr^3 at reduced coord.  0.7556  0.7556  0.7333
,   next min=  3.1992E-03 el/bohr^3 at reduced coord.  0.7556  0.7333  0.7556
,Max el dens=  8.8541E-02 el/bohr^3 at reduced coord.  0.1556  0.1556  0.5556
,   next max=  8.8541E-02 el/bohr^3 at reduced coord.  0.1333  0.1556  0.5556

--------------------------------------------------------------------------------
 Components of total free energy (in Hartree) :

    Kinetic energy  =  3.23359824972485E+00
    Hartree energy  =  5.51234164603225E-01
    XC energy       = -3.34738625761291E+00
    Ewald energy    = -8.46648022654903E+00
    PspCore energy  = -2.41021788713553E-01
    Loc. psp. energy= -2.54968657358226E+00
    NL   psp  energy=  2.11979688811047E+00
    >>>>>>>>> Etotal= -8.69994554401922E+00

 Other information on the energy :
    Total energy(eV)= -2.36737563327369E+02 ; Band energy (Ha)=   5.9931820227E-01
--------------------------------------------------------------------------------

 Cartesian components of stress tensor (hartree/bohr^3)
  sigma(1 1)= -5.88877920E-05  sigma(3 2)=  0.00000000E+00
  sigma(2 2)= -5.88877920E-05  sigma(3 1)=  0.00000000E+00
  sigma(3 3)= -5.88877920E-05  sigma(2 1)=  0.00000000E+00

-Cartesian components of stress tensor (GPa)         [Pressure=  1.7325E+00 GPa]
- sigma(1 1)= -1.73253843E+00  sigma(3 2)=  0.00000000E+00
- sigma(2 2)= -1.73253843E+00  sigma(3 1)=  0.00000000E+00
- sigma(3 3)= -1.73253843E+00  sigma(2 1)=  0.00000000E+00

== END DATASET(S) ==============================================================
================================================================================
  
 -outvars: echo values of variables after computation  --------
     acell    1.0180000000E+01  1.0180000000E+01  1.0180000000E+01 Bohr
       amu    2.80855000E+01
    diemac    1.20000000E+01
      ecut    4.00000000E+01 Hartree
    etotal   -8.6999455440E+00
     fcart    0.0000000000E+00  0.0000000000E+00  0.0000000000E+00
              0.0000000000E+00  0.0000000000E+00  0.0000000000E+00
     intxc         1
       kpt    2.50000000E-01  2.50000000E-01  2.50000000E-01
             -2.50000000E-01  2.50000000E-01  2.50000000E-01
   kptrlen    1.43966941E+01
    kptopt         1
  kptrlatt    2  0  0   0  2  0   0  0  2
P    mkmem         2
     natom         2
     nband         5
     ngfft        45      45      45
      nkpt         2
     nstep         2
      nsym        48
    ntypat         1
       occ    2.000000  2.000000  2.000000  2.000000  0.000000
     rprim    0.0000000000E+00  5.0000000000E-01  5.0000000000E-01
              5.0000000000E-01  0.0000000000E+00  5.0000000000E-01
              5.0000000000E-01  5.0000000000E-01  0.0000000000E+00
    shiftk    5.00000000E-01  5.00000000E-01  5.00000000E-01
   spgroup       227
    strten   -5.8887792014E-05 -5.8887792014E-05 -5.8887792014E-05
              0.0000000000E+00  0.0000000000E+00  0.0000000000E+00
    symrel    1  0  0   0  1  0   0  0  1      -1  0  0   0 -1  0   0  0 -1
              0 -1  1   0 -1  0   1 -1  0       0  1 -1   0  1  0  -1  1  0
             -1  0  0  -1  0  1  -1  1  0       1  0  0   1  0 -1   1 -1  0
              0  1 -1   1  0 -1   0  0 -1       0 -1  1  -1  0  1   0  0  1
             -1  0  0  -1  1  0  -1  0  1       1  0  0   1 -1  0   1  0 -1
              0 -1  1   1 -1  0   0 -1  0       0  1 -1  -1  1  0   0  1  0
              1  0  0   0  0  1   0  1  0      -1  0  0   0  0 -1   0 -1  0
              0  1 -1   0  0 -1   1  0 -1       0 -1  1   0  0  1  -1  0  1
             -1  0  1  -1  1  0  -1  0  0       1  0 -1   1 -1  0   1  0  0
              0 -1  0   1 -1  0   0 -1  1       0  1  0  -1  1  0   0  1 -1
              1  0 -1   0  0 -1   0  1 -1      -1  0  1   0  0  1   0 -1  1
              0  1  0   0  0  1   1  0  0       0 -1  0   0  0 -1  -1  0  0
              1  0 -1   0  1 -1   0  0 -1      -1  0  1   0 -1  1   0  0  1
              0 -1  0   0 -1  1   1 -1  0       0  1  0   0  1 -1  -1  1  0
             -1  0  1  -1  0  0  -1  1  0       1  0 -1   1  0  0   1 -1  0
              0  1  0   1  0  0   0  0  1       0 -1  0  -1  0  0   0  0 -1
              0  0 -1   0  1 -1   1  0 -1       0  0  1   0 -1  1  -1  0  1
              1 -1  0   0 -1  1   0 -1  0      -1  1  0   0  1 -1   0  1  0
              0  0  1   1  0  0   0  1  0       0  0 -1  -1  0  0   0 -1  0
             -1  1  0  -1  0  0  -1  0  1       1 -1  0   1  0  0   1  0 -1
              0  0  1   0  1  0   1  0  0       0  0 -1   0 -1  0  -1  0  0
              1 -1  0   0 -1  0   0 -1  1      -1  1  0   0  1  0   0  1 -1
              0  0 -1   1  0 -1   0  1 -1       0  0  1  -1  0  1   0 -1  1
             -1  1  0  -1  0  1  -1  0  0       1 -1  0   1  0 -1   1  0  0
     tnons    0.0000000  0.0000000  0.0000000     0.2500000  0.2500000  0.2500000
              0.0000000  0.0000000  0.0000000     0.2500000  0.2500000  0.2500000
              0.0000000  0.0000000  0.0000000     0.2500000  0.2500000  0.2500000
              0.0000000  0.0000000  0.0000000     0.2500000  0.2500000  0.2500000
              0.0000000  0.0000000  0.0000000     0.2500000  0.2500000  0.2500000
              0.0000000  0.0000000  0.0000000     0.2500000  0.2500000  0.2500000
              0.0000000  0.0000000  0.0000000     0.2500000  0.2500000  0.2500000
              0.0000000  0.0000000  0.0000000     0.2500000  0.2500000  0.2500000
              0.0000000  0.0000000  0.0000000     0.2500000  0.2500000  0.2500000
              0.0000000  0.0000000  0.0000000     0.2500000  0.2500000  0.2500000
              0.0000000  0.0000000  0.0000000     0.2500000  0.2500000  0.2500000
              0.0000000  0.0000000  0.0000000     0.2500000  0.2500000  0.2500000
              0.0000000  0.0000000  0.0000000     0.2500000  0.2500000  0.2500000
              0.0000000  0.0000000  0.0000000     0.2500000  0.2500000  0.2500000
              0.0000000  0.0000000  0.0000000     0.2500000  0.2500000  0.2500000
              0.0000000  0.0000000  0.0000000     0.2500000  0.2500000  0.2500000
              0.0000000  0.0000000  0.0000000     0.2500000  0.2500000  0.2500000
              0.0000000  0.0000000  0.0000000     0.2500000  0.2500000  0.2500000
              0.0000000  0.0000000  0.0000000     0.2500000  0.2500000  0.2500000
              0.0000000  0.0000000  0.0000000     0.2500000  0.2500000  0.2500000
              0.0000000  0.0000000  0.0000000     0.2500000  0.2500000  0.2500000
              0.0000000  0.0000000  0.0000000     0.2500000  0.2500000  0.2500000
              0.0000000  0.0000000  0.0000000     0.2500000  0.2500000  0.2500000
              0.0000000  0.0000000  0.0000000     0.2500000  0.2500000  0.2500000
    toldfe    1.00000000E-06 Hartree
     typat    1  1
       wtk      0.25000    0.75000
    xangst    0.0000000000E+00 -3.7379988035E-17 -3.7379988035E-17
              1.3467560015E+00  1.3467560015E+00  1.3467560015E+00
     xcart    0.0000000000E+00 -7.0637939942E-17 -7.0637939942E-17
              2.5450000000E+00  2.5450000000E+00  2.5450000000E+00
      xred   -1.3877787808E-17  0.0000000000E+00  0.0000000000E+00
              2.5000000000E-01  2.5000000000E-01  2.5000000000E-01
     znucl     14.00000

================================================================================

- Total cpu        time (s,m,h):          9.3        0.16      0.003
- Total wall clock time (s,m,h):          9.3        0.16      0.003

- For major independent code sections, cpu and wall times (sec),
- as well as % of the total time and number of calls 

- routine                 cpu     %       wall     %      number of calls 
-                                                          (-1=no count)
- fourwf(pot)            5.181  55.5      5.204  55.7            200
- pspini                 0.591   6.3      0.591   6.3              1
- nonlop(apply)          0.432   4.6      0.436   4.7            200
- fourdp                 0.422   4.5      0.430   4.6             25
- timing timab           0.402   4.3      0.403   4.3              9
- forces                 0.304   3.3      0.305   3.3              2
- mkcore                 0.299   3.2      0.300   3.2              4
- cgwf-O(npw)            0.245   2.6      0.239   2.6             -1
- xc:pot/=fourdp         0.238   2.5      0.237   2.5              3
- invars2                0.236   2.5      0.236   2.5              1
- fourwf(den)            0.229   2.5      0.228   2.4             16
- projbd                 0.215   2.3      0.212   2.3            320
- abinit(2)              0.073   0.8      0.074   0.8              1
- getghc-other           0.063   0.7      0.045   0.5             -1
- setsym                 0.060   0.6      0.059   0.6              1
- nonlop(forces)         0.052   0.6      0.056   0.6             16
- 41   others            0.218   2.3      0.208   2.2

- subtotal               9.260  99.2      9.263  99.2

================================================================================

 Calculation completed.
 Delivered    1 WARNINGs and   0 COMMENTs to log file.
+Overall time at end (sec) : cpu=          9.3  wall=          9.3
