
.Version 5.5.2  of ABINIT 
.(MPI version, prepared for a x86_64_linux_intel9.1 computer) 

.Copyright (C) 1998-2007 ABINIT group . 
 ABINIT comes with ABSOLUTELY NO WARRANTY.
 It is free software, and you are welcome to redistribute it
 under certain conditions (GNU General Public License,
 see ~abinit/COPYING or http://www.gnu.org/copyleft/gpl.txt).

 ABINIT is a project of the Universite Catholique de Louvain,
 Corning Inc. and other collaborators, see ~abinit/doc/developers/contributors.txt .
 Please read ~abinit/doc/users/acknowledgments.html for suggested
 acknowledgments of the ABINIT effort.
 For more information, see http://www.abinit.org .

.Starting date : Sun  9 Dec 2007.
  
- input  file    -> /home/pcpm/gonze/ABINIT/ABINITv5.5.2/abinit-5.5.2tpri94/tests/paral/Input/tG.in
- output file    -> tG10.out
- root for input  files -> tG.i
- root for output files -> tG10.o


 Symmetries : space group Fm -3 m (#225); Bravais cF (face-center cubic)
================================================================================
 Values of the parameters that define the memory need of the present run (RF).
   intxc =         0    iscf =         5 xclevel =         1  lmnmax =         3
   lnmax =         3   mband =         5  mffmem =         1   mgfft =        16
P  mkmem =        26  mkqmem =        26  mk1mem =        26 mpssoang=         2
     mpw =       168  mqgrid =      3001   natom =         1    nfft =      4096
    nkpt =       256  nloalg =         4  nspden =         1 nspinor =         1
  nsppol =         1    nsym =        48  n1xccc =         0  ntypat =         1
  occopt =         4
================================================================================
P This job should need less than                       4.262 Mbytes of memory.
  Rough estimation (10% accuracy) of disk space for files :
  WF disk file :      3.283 Mbytes ; DEN or POT disk file :      0.033 Mbytes.
================================================================================

 -outvars: echo values of preprocessed input variables --------
     acell    7.5600000000E+00  7.5600000000E+00  7.5600000000E+00 Bohr
       amu    2.69600000E+01
    densty    1.20000000E+00
      ecut    1.00000000E+01 Hartree
    enunit         2
    irdwfk         1
    irdwfq         1
      iscf         5
    istatr      1000
       kpt   -1.25000000E-01 -2.50000000E-01  0.00000000E+00
             -2.50000000E-01 -1.25000000E-01  0.00000000E+00
             -1.25000000E-01 -1.25000000E-01  1.25000000E-01
             -1.25000000E-01  5.00000000E-01  0.00000000E+00
             -2.50000000E-01 -3.75000000E-01  0.00000000E+00
             -1.25000000E-01 -3.75000000E-01  1.25000000E-01
             -3.75000000E-01 -2.50000000E-01  0.00000000E+00
             -2.50000000E-01 -2.50000000E-01  1.25000000E-01
             -1.25000000E-01 -2.50000000E-01  2.50000000E-01
              5.00000000E-01 -1.25000000E-01  0.00000000E+00
             -3.75000000E-01 -1.25000000E-01  1.25000000E-01
             -2.50000000E-01 -1.25000000E-01  2.50000000E-01
             -1.25000000E-01 -1.25000000E-01  3.75000000E-01
             -1.25000000E-01  2.50000000E-01  0.00000000E+00
             -2.50000000E-01  3.75000000E-01  0.00000000E+00
             -1.25000000E-01  3.75000000E-01  1.25000000E-01
             -3.75000000E-01  5.00000000E-01  0.00000000E+00
             -2.50000000E-01  5.00000000E-01  1.25000000E-01
             -1.25000000E-01  5.00000000E-01  2.50000000E-01
              5.00000000E-01 -3.75000000E-01  0.00000000E+00
             -3.75000000E-01 -3.75000000E-01  1.25000000E-01
             -2.50000000E-01 -3.75000000E-01  2.50000000E-01
             -1.25000000E-01 -3.75000000E-01  3.75000000E-01
              3.75000000E-01 -2.50000000E-01  0.00000000E+00
              5.00000000E-01 -2.50000000E-01  1.25000000E-01
             -3.75000000E-01 -2.50000000E-01  2.50000000E-01
             -2.50000000E-01 -2.50000000E-01  3.75000000E-01
             -1.25000000E-01 -2.50000000E-01  5.00000000E-01
              2.50000000E-01 -1.25000000E-01  0.00000000E+00
              3.75000000E-01 -1.25000000E-01  1.25000000E-01
              5.00000000E-01 -1.25000000E-01  2.50000000E-01
             -3.75000000E-01 -1.25000000E-01  3.75000000E-01
             -2.50000000E-01 -1.25000000E-01  5.00000000E-01
             -1.25000000E-01 -1.25000000E-01 -3.75000000E-01
             -1.25000000E-01  0.00000000E+00  0.00000000E+00
             -2.50000000E-01  1.25000000E-01  0.00000000E+00
             -1.25000000E-01  1.25000000E-01  1.25000000E-01
             -3.75000000E-01  2.50000000E-01  0.00000000E+00
             -2.50000000E-01  2.50000000E-01  1.25000000E-01
             -1.25000000E-01  2.50000000E-01  2.50000000E-01
              5.00000000E-01  3.75000000E-01  0.00000000E+00
             -3.75000000E-01  3.75000000E-01  1.25000000E-01
             -2.50000000E-01  3.75000000E-01  2.50000000E-01
             -1.25000000E-01  3.75000000E-01  3.75000000E-01
              3.75000000E-01  5.00000000E-01  0.00000000E+00
              5.00000000E-01  5.00000000E-01  1.25000000E-01
             -3.75000000E-01  5.00000000E-01  2.50000000E-01
             -2.50000000E-01  5.00000000E-01  3.75000000E-01
             -1.25000000E-01  5.00000000E-01  5.00000000E-01
              2.50000000E-01 -3.75000000E-01  0.00000000E+00
                       outvar1 : prtvol=0, do not print more k-points.
   kptrlen    3.02400000E+01
    kptopt         3
  kptrlatt    4 -4  4  -4  4  4  -4 -4  4
P    mkmem        26
P   mkqmem        26
P   mk1mem        26
     natom         1
     nband         5
    nbdbuf         3
     ngfft        16      16      16
      nkpt       256
      nqpt         1
     nstep        20
      nsym        48
    ntypat         1
       occ    2.000000  1.000000  0.000000  0.000000  0.000000
              2.000000  1.000000  0.000000  0.000000  0.000000
              2.000000  1.000000  0.000000  0.000000  0.000000
              2.000000  1.000000  0.000000  0.000000  0.000000
              2.000000  1.000000  0.000000  0.000000  0.000000
              2.000000  1.000000  0.000000  0.000000  0.000000
              2.000000  1.000000  0.000000  0.000000  0.000000
              2.000000  1.000000  0.000000  0.000000  0.000000
              2.000000  1.000000  0.000000  0.000000  0.000000
              2.000000  1.000000  0.000000  0.000000  0.000000
              2.000000  1.000000  0.000000  0.000000  0.000000
              2.000000  1.000000  0.000000  0.000000  0.000000
              2.000000  1.000000  0.000000  0.000000  0.000000
              2.000000  1.000000  0.000000  0.000000  0.000000
              2.000000  1.000000  0.000000  0.000000  0.000000
              2.000000  1.000000  0.000000  0.000000  0.000000
              2.000000  1.000000  0.000000  0.000000  0.000000
              2.000000  1.000000  0.000000  0.000000  0.000000
              2.000000  1.000000  0.000000  0.000000  0.000000
              2.000000  1.000000  0.000000  0.000000  0.000000
              2.000000  1.000000  0.000000  0.000000  0.000000
              2.000000  1.000000  0.000000  0.000000  0.000000
              2.000000  1.000000  0.000000  0.000000  0.000000
              2.000000  1.000000  0.000000  0.000000  0.000000
              2.000000  1.000000  0.000000  0.000000  0.000000
              2.000000  1.000000  0.000000  0.000000  0.000000
              2.000000  1.000000  0.000000  0.000000  0.000000
              2.000000  1.000000  0.000000  0.000000  0.000000
              2.000000  1.000000  0.000000  0.000000  0.000000
              2.000000  1.000000  0.000000  0.000000  0.000000
              2.000000  1.000000  0.000000  0.000000  0.000000
              2.000000  1.000000  0.000000  0.000000  0.000000
              2.000000  1.000000  0.000000  0.000000  0.000000
              2.000000  1.000000  0.000000  0.000000  0.000000
              2.000000  1.000000  0.000000  0.000000  0.000000
              2.000000  1.000000  0.000000  0.000000  0.000000
              2.000000  1.000000  0.000000  0.000000  0.000000
              2.000000  1.000000  0.000000  0.000000  0.000000
              2.000000  1.000000  0.000000  0.000000  0.000000
              2.000000  1.000000  0.000000  0.000000  0.000000
              2.000000  1.000000  0.000000  0.000000  0.000000
              2.000000  1.000000  0.000000  0.000000  0.000000
              2.000000  1.000000  0.000000  0.000000  0.000000
              2.000000  1.000000  0.000000  0.000000  0.000000
              2.000000  1.000000  0.000000  0.000000  0.000000
              2.000000  1.000000  0.000000  0.000000  0.000000
              2.000000  1.000000  0.000000  0.000000  0.000000
              2.000000  1.000000  0.000000  0.000000  0.000000
              2.000000  1.000000  0.000000  0.000000  0.000000
              2.000000  1.000000  0.000000  0.000000  0.000000
                prtocc : prtvol=0, do not print more k-points.
    occopt         4
 optdriver         1
       qpt    2.50000000E-01 -1.25000000E-01  1.25000000E-01
     rfdir         1       1       1
    rfphon         1
     rprim    0.0000000000E+00  5.0000000000E-01  5.0000000000E-01
              5.0000000000E-01  0.0000000000E+00  5.0000000000E-01
              5.0000000000E-01  5.0000000000E-01  0.0000000000E+00
    shiftk    5.00000000E-01  5.00000000E-01  5.00000000E-01
   spgroup       225
    symrel    1  0  0   0  1  0   0  0  1      -1  0  0   0 -1  0   0  0 -1
              0 -1  1   0 -1  0   1 -1  0       0  1 -1   0  1  0  -1  1  0
             -1  0  0  -1  0  1  -1  1  0       1  0  0   1  0 -1   1 -1  0
              0  1 -1   1  0 -1   0  0 -1       0 -1  1  -1  0  1   0  0  1
             -1  0  0  -1  1  0  -1  0  1       1  0  0   1 -1  0   1  0 -1
              0 -1  1   1 -1  0   0 -1  0       0  1 -1  -1  1  0   0  1  0
              1  0  0   0  0  1   0  1  0      -1  0  0   0  0 -1   0 -1  0
              0  1 -1   0  0 -1   1  0 -1       0 -1  1   0  0  1  -1  0  1
             -1  0  1  -1  1  0  -1  0  0       1  0 -1   1 -1  0   1  0  0
              0 -1  0   1 -1  0   0 -1  1       0  1  0  -1  1  0   0  1 -1
              1  0 -1   0  0 -1   0  1 -1      -1  0  1   0  0  1   0 -1  1
              0  1  0   0  0  1   1  0  0       0 -1  0   0  0 -1  -1  0  0
              1  0 -1   0  1 -1   0  0 -1      -1  0  1   0 -1  1   0  0  1
              0 -1  0   0 -1  1   1 -1  0       0  1  0   0  1 -1  -1  1  0
             -1  0  1  -1  0  0  -1  1  0       1  0 -1   1  0  0   1 -1  0
              0  1  0   1  0  0   0  0  1       0 -1  0  -1  0  0   0  0 -1
              0  0 -1   0  1 -1   1  0 -1       0  0  1   0 -1  1  -1  0  1
              1 -1  0   0 -1  1   0 -1  0      -1  1  0   0  1 -1   0  1  0
              0  0  1   1  0  0   0  1  0       0  0 -1  -1  0  0   0 -1  0
             -1  1  0  -1  0  0  -1  0  1       1 -1  0   1  0  0   1  0 -1
              0  0  1   0  1  0   1  0  0       0  0 -1   0 -1  0  -1  0  0
              1 -1  0   0 -1  0   0 -1  1      -1  1  0   0  1  0   0  1 -1
              0  0 -1   1  0 -1   0  1 -1       0  0  1  -1  0  1   0 -1  1
             -1  1  0  -1  0  1  -1  0  0       1 -1  0   1  0 -1   1  0  0
    timopt         2
    tolvrs    1.00000000E-10
     typat    1
       wtk      0.00391    0.00391    0.00391    0.00391    0.00391    0.00391
                0.00391    0.00391    0.00391    0.00391    0.00391    0.00391
                0.00391    0.00391    0.00391    0.00391    0.00391    0.00391
                0.00391    0.00391    0.00391    0.00391    0.00391    0.00391
                0.00391    0.00391    0.00391    0.00391    0.00391    0.00391
                0.00391    0.00391    0.00391    0.00391    0.00391    0.00391
                0.00391    0.00391    0.00391    0.00391    0.00391    0.00391
                0.00391    0.00391    0.00391    0.00391    0.00391    0.00391
                0.00391    0.00391
                outvar1 : prtvol=0, do not print more k-points.
     znucl     13.00000

================================================================================

 chkinp: Checking input parameters for consistency.

================================================================================
== DATASET  1 ==================================================================

 Real(R)+Recip(G) space primitive vectors, cartesian coordinates (Bohr,Bohr^-1):
 R(1)=  0.0000000  3.7800000  3.7800000  G(1)= -0.1322751  0.1322751  0.1322751
 R(2)=  3.7800000  0.0000000  3.7800000  G(2)=  0.1322751 -0.1322751  0.1322751
 R(3)=  3.7800000  3.7800000  0.0000000  G(3)=  0.1322751  0.1322751 -0.1322751
 Unit cell volume ucvol=  1.0802030E+02 bohr^3
 Angles (23,13,12)=  6.00000000E+01  6.00000000E+01  6.00000000E+01 degrees
 setup1 : take into account q-point for computing boxcut.

 getcut: wavevector=  0.2500 -0.1250  0.1250  ngfft=  16  16  16
         ecut(hartree)=     10.000   => boxcut(ratio)=   2.03844

--- Pseudopotential description ------------------------------------------------
- pspini: atom type   1  psp file is /home/pcpm/gonze/ABINIT/ABINITv5.5.2/abinit-5.5.2tpri94/tests/Psps_for_tests/13al.pspgth
- pspatm: opening atomic psp file    /home/pcpm/gonze/ABINIT/ABINITv5.5.2/abinit-5.5.2tpri94/tests/Psps_for_tests/13al.pspgth
 Goedecker-Teter-Hutter  Tue May 28 09:24:05 EDT 1996
  13.00000   3.00000    960528                znucl, zion, pspdat
    2    1    1    0      2001   0.00000      pspcod,pspxc,lmax,lloc,mmax,r2well
 rloc=   0.4500000
  cc1=  -6.8340578; cc2=   0.0000000; cc3=   0.0000000; cc4=   0.0000000
  rrs=   0.4654363; h1s=   2.8140777; h2s=   1.9395165
  rrp=   0.5462433; h1p=   1.9160118
-  Local part computed in reciprocal space.

 pspatm : COMMENT -
  the projectors are not normalized,
  so that the KB energies are not consistent with
  definition in PRB44, 8503 (1991).
  However, this does not influence the results obtained hereafter.
 pspatm: epsatm=   -5.99108991
         --- l  ekb(1:nproj) -->
             0    1.005823    0.184862
             1    0.220213
 pspatm: atomic psp has been read  and splines computed

  -1.79732697E+01                                ecore*ucvol(ha*bohr**3)
--------------------------------------------------------------------------------

-inwffil : will read wavefunctions from disk file tG.i_WFK
-P-0000 - newkpt: read input wf with ikpt,npw=   1     162, make ikpt,npw=   1     162
-P-0000 - newkpt: read input wf with ikpt,npw=   1     162, make ikpt,npw=   2     162
-P-0000 - newkpt: read input wf with ikpt,npw=   1     162, make ikpt,npw=   3     162
-P-0000 - newkpt: read input wf with ikpt,npw=   2     165, make ikpt,npw=   4     165
-P-0000 - newkpt: read input wf with ikpt,npw=   3     163, make ikpt,npw=   5     163
-P-0000 - newkpt: read input wf with ikpt,npw=   4     161, make ikpt,npw=   6     161
-P-0000 - newkpt: read input wf with ikpt,npw=   3     163, make ikpt,npw=   7     163
-P-0000 - newkpt: read input wf with ikpt,npw=   3     163, make ikpt,npw=   8     163
-P-0000 - newkpt: read input wf with ikpt,npw=   4     161, make ikpt,npw=   9     161
-P-0000 - newkpt: read input wf with ikpt,npw=   2     165, make ikpt,npw=  10     165
-P-0000 - newkpt: read input wf with ikpt,npw=   4     161, make ikpt,npw=  11     161
-P-0000 - newkpt: read input wf with ikpt,npw=   4     161, make ikpt,npw=  12     161
-P-0000 - newkpt: read input wf with ikpt,npw=   2     165, make ikpt,npw=  13     165
-P-0000 - newkpt: read input wf with ikpt,npw=   5     159, make ikpt,npw=  14     159
-P-0000 - newkpt: read input wf with ikpt,npw=   6     165, make ikpt,npw=  15     165
-P-0000 - newkpt: read input wf with ikpt,npw=   4     161, make ikpt,npw=  16     161
-P-0000 - newkpt: read input wf with ikpt,npw=   7     166, make ikpt,npw=  17     166
-P-0000 - newkpt: read input wf with ikpt,npw=   8     165, make ikpt,npw=  18     165
-P-0000 - newkpt: read input wf with ikpt,npw=   8     165, make ikpt,npw=  19     165
-P-0000 - newkpt: read input wf with ikpt,npw=   7     166, make ikpt,npw=  20     166
-P-0000 - newkpt: read input wf with ikpt,npw=   7     166, make ikpt,npw=  21     166
-P-0000 - newkpt: read input wf with ikpt,npw=   8     165, make ikpt,npw=  22     165
-P-0000 - newkpt: read input wf with ikpt,npw=   8     165, make ikpt,npw=  23     165
-P-0000 - newkpt: read input wf with ikpt,npw=   6     165, make ikpt,npw=  24     165
-P-0000 - newkpt: read input wf with ikpt,npw=   8     165, make ikpt,npw=  25     165
-P-0000 - newkpt: read input wf with ikpt,npw=   8     165, make ikpt,npw=  26     165
 

 ==>  initialize data related to q vector <==

 The list of irreducible perturbations for this q vector is:
    1)    idir= 1    ipert=   1
    2)    idir= 2    ipert=   1
    3)    idir= 3    ipert=   1

================================================================================

--------------------------------------------------------------------------------
 Perturbation wavevector (in red.coord.)   0.250000 -0.125000  0.125000
 Perturbation : displacement of atom   1   along direction   1
 The set of symmetries contains only one element for this perturbation.
 symkpt : not enough symmetry to change the number of k points.

--------------------------------------------------------------------------------

-inwffil : will read wavefunctions from disk file tG.i_WFK
-P-0000 - newkpt: read input wf with ikpt,npw=   1     162, make ikpt,npw=   1     162
-P-0000 - newkpt: read input wf with ikpt,npw=   1     162, make ikpt,npw=   2     162
-P-0000 - newkpt: read input wf with ikpt,npw=   1     162, make ikpt,npw=   3     162
-P-0000 - newkpt: read input wf with ikpt,npw=   2     165, make ikpt,npw=   4     165
-P-0000 - newkpt: read input wf with ikpt,npw=   3     163, make ikpt,npw=   5     163
-P-0000 - newkpt: read input wf with ikpt,npw=   4     161, make ikpt,npw=   6     161
-P-0000 - newkpt: read input wf with ikpt,npw=   3     163, make ikpt,npw=   7     163
-P-0000 - newkpt: read input wf with ikpt,npw=   3     163, make ikpt,npw=   8     163
-P-0000 - newkpt: read input wf with ikpt,npw=   4     161, make ikpt,npw=   9     161
-P-0000 - newkpt: read input wf with ikpt,npw=   2     165, make ikpt,npw=  10     165
-P-0000 - newkpt: read input wf with ikpt,npw=   4     161, make ikpt,npw=  11     161
-P-0000 - newkpt: read input wf with ikpt,npw=   4     161, make ikpt,npw=  12     161
-P-0000 - newkpt: read input wf with ikpt,npw=   2     165, make ikpt,npw=  13     165
-P-0000 - newkpt: read input wf with ikpt,npw=   5     159, make ikpt,npw=  14     159
-P-0000 - newkpt: read input wf with ikpt,npw=   6     165, make ikpt,npw=  15     165
-P-0000 - newkpt: read input wf with ikpt,npw=   4     161, make ikpt,npw=  16     161
-P-0000 - newkpt: read input wf with ikpt,npw=   7     166, make ikpt,npw=  17     166
-P-0000 - newkpt: read input wf with ikpt,npw=   8     165, make ikpt,npw=  18     165
-P-0000 - newkpt: read input wf with ikpt,npw=   8     165, make ikpt,npw=  19     165
-P-0000 - newkpt: read input wf with ikpt,npw=   7     166, make ikpt,npw=  20     166
-P-0000 - newkpt: read input wf with ikpt,npw=   7     166, make ikpt,npw=  21     166
-P-0000 - newkpt: read input wf with ikpt,npw=   8     165, make ikpt,npw=  22     165
-P-0000 - newkpt: read input wf with ikpt,npw=   8     165, make ikpt,npw=  23     165
-P-0000 - newkpt: read input wf with ikpt,npw=   6     165, make ikpt,npw=  24     165
-P-0000 - newkpt: read input wf with ikpt,npw=   8     165, make ikpt,npw=  25     165
-P-0000 - newkpt: read input wf with ikpt,npw=   8     165, make ikpt,npw=  26     165
 
--------------------------------------------------------------------------------

-inwffil : will read wavefunctions from disk file tG.i_WFQ
-P-0000 - newkpt: read input wf with ikpt,npw=   2     165, make ikpt,npw=   1     165
-P-0000 - newkpt: read input wf with ikpt,npw=   5     159, make ikpt,npw=   2     159
-P-0000 - newkpt: read input wf with ikpt,npw=   4     161, make ikpt,npw=   3     161
-P-0000 - newkpt: read input wf with ikpt,npw=   5     159, make ikpt,npw=   4     159
-P-0000 - newkpt: read input wf with ikpt,npw=   2     165, make ikpt,npw=   5     165
-P-0000 - newkpt: read input wf with ikpt,npw=   4     161, make ikpt,npw=   6     161
-P-0000 - newkpt: read input wf with ikpt,npw=   4     161, make ikpt,npw=   7     161
-P-0000 - newkpt: read input wf with ikpt,npw=   6     165, make ikpt,npw=   8     165
-P-0000 - newkpt: read input wf with ikpt,npw=   8     165, make ikpt,npw=   9     165
-P-0000 - newkpt: read input wf with ikpt,npw=   3     163, make ikpt,npw=  10     163
-P-0000 - newkpt: read input wf with ikpt,npw=   4     161, make ikpt,npw=  11     161
-P-0000 - newkpt: read input wf with ikpt,npw=   6     165, make ikpt,npw=  12     165
-P-0000 - newkpt: read input wf with ikpt,npw=   8     165, make ikpt,npw=  13     165
-P-0000 - newkpt: read input wf with ikpt,npw=   9     168, make ikpt,npw=  14     168
-P-0000 - newkpt: read input wf with ikpt,npw=   1     162, make ikpt,npw=  15     162
-P-0000 - newkpt: read input wf with ikpt,npw=   1     162, make ikpt,npw=  16     162
-P-0000 - newkpt: read input wf with ikpt,npw=   4     161, make ikpt,npw=  17     161
-P-0000 - newkpt: read input wf with ikpt,npw=   3     163, make ikpt,npw=  18     163
-P-0000 - newkpt: read input wf with ikpt,npw=   3     163, make ikpt,npw=  19     163
-P-0000 - newkpt: read input wf with ikpt,npw=   8     165, make ikpt,npw=  20     165
-P-0000 - newkpt: read input wf with ikpt,npw=   8     165, make ikpt,npw=  21     165
-P-0000 - newkpt: read input wf with ikpt,npw=   7     166, make ikpt,npw=  22     166
-P-0000 - newkpt: read input wf with ikpt,npw=   7     166, make ikpt,npw=  23     166
-P-0000 - newkpt: read input wf with ikpt,npw=   7     166, make ikpt,npw=  24     166
-P-0000 - newkpt: read input wf with ikpt,npw=   8     165, make ikpt,npw=  25     165
-P-0000 - newkpt: read input wf with ikpt,npw=   8     165, make ikpt,npw=  26     165
 
 loper3 : total number of electrons, from k and k+q
  fully or partially occupied states are    3.000000E+00 and    3.000000E+00.
 Initialisation of the first-order wave-functions :
  ireadwf=   0
P newkpt: treating      5 bands with npw=     165 for ikpt=   1 by node    0
P newkpt: treating      5 bands with npw=     159 for ikpt=   2 by node    0
P newkpt: treating      5 bands with npw=     161 for ikpt=   3 by node    0
P newkpt: treating      5 bands with npw=     159 for ikpt=   4 by node    0
P newkpt: treating      5 bands with npw=     165 for ikpt=   5 by node    0
P newkpt: treating      5 bands with npw=     161 for ikpt=   6 by node    0
P newkpt: treating      5 bands with npw=     161 for ikpt=   7 by node    0
P newkpt: treating      5 bands with npw=     165 for ikpt=   8 by node    0
P newkpt: treating      5 bands with npw=     165 for ikpt=   9 by node    0
P newkpt: treating      5 bands with npw=     163 for ikpt=  10 by node    0
P newkpt: treating      5 bands with npw=     161 for ikpt=  11 by node    0
P newkpt: treating      5 bands with npw=     165 for ikpt=  12 by node    0
P newkpt: treating      5 bands with npw=     165 for ikpt=  13 by node    0
P newkpt: treating      5 bands with npw=     168 for ikpt=  14 by node    0
P newkpt: treating      5 bands with npw=     162 for ikpt=  15 by node    0
P newkpt: treating      5 bands with npw=     162 for ikpt=  16 by node    0
P newkpt: treating      5 bands with npw=     161 for ikpt=  17 by node    0
P newkpt: treating      5 bands with npw=     163 for ikpt=  18 by node    0
P newkpt: treating      5 bands with npw=     163 for ikpt=  19 by node    0
P newkpt: treating      5 bands with npw=     165 for ikpt=  20 by node    0
P newkpt: treating      5 bands with npw=     165 for ikpt=  21 by node    0
P newkpt: treating      5 bands with npw=     166 for ikpt=  22 by node    0
P newkpt: treating      5 bands with npw=     166 for ikpt=  23 by node    0
P newkpt: treating      5 bands with npw=     166 for ikpt=  24 by node    0
P newkpt: treating      5 bands with npw=     165 for ikpt=  25 by node    0
P newkpt: treating      2 bands with npw=     165 for ikpt=  26 by node    1
P newkpt: treating      5 bands with npw=     166 for ikpt=  27 by node    1
P newkpt: treating      5 bands with npw=     166 for ikpt=  28 by node    1
P newkpt: treating      5 bands with npw=     165 for ikpt=  29 by node    1
P newkpt: treating      5 bands with npw=     165 for ikpt=  30 by node    1
P newkpt: treating      5 bands with npw=     165 for ikpt=  31 by node    1
P newkpt: treating      5 bands with npw=     161 for ikpt=  32 by node    1
P newkpt: treating      5 bands with npw=     163 for ikpt=  33 by node    1
P newkpt: treating      5 bands with npw=     163 for ikpt=  34 by node    1
P newkpt: treating      5 bands with npw=     162 for ikpt=  35 by node    1
P newkpt: treating      5 bands with npw=     168 for ikpt=  36 by node    1
P newkpt: treating      5 bands with npw=     162 for ikpt=  37 by node    1
P newkpt: treating      5 bands with npw=     162 for ikpt=  38 by node    1
P newkpt: treating      5 bands with npw=     162 for ikpt=  39 by node    1
P newkpt: treating      5 bands with npw=     159 for ikpt=  40 by node    1
P newkpt: treating      5 bands with npw=     161 for ikpt=  41 by node    1
P newkpt: treating      5 bands with npw=     163 for ikpt=  42 by node    1
P newkpt: treating      5 bands with npw=     163 for ikpt=  43 by node    1
P newkpt: treating      5 bands with npw=     161 for ikpt=  44 by node    1
P newkpt: treating      5 bands with npw=     165 for ikpt=  45 by node    1
P newkpt: treating      5 bands with npw=     165 for ikpt=  46 by node    1
P newkpt: treating      5 bands with npw=     166 for ikpt=  47 by node    1
P newkpt: treating      5 bands with npw=     166 for ikpt=  48 by node    1
P newkpt: treating      5 bands with npw=     165 for ikpt=  49 by node    1
P newkpt: treating      5 bands with npw=     166 for ikpt=  50 by node    1
  newkpt: prtvol=0 or 1, do not print more k-points.
 

     iter   2DEtotal(Ha)        deltaE(Ha) residm    vres2
-ETOT  1   208.75701547490      1.872E+02 2.430E-01 5.118E+05
 ETOT  2   10.837279960626     -1.979E+02 2.191E-01 2.373E+04
 ETOT  3   1.2006212232524     -9.637E+00 7.174E-03 3.088E+01
 ETOT  4   1.1653866177767     -3.523E-02 7.845E-05 2.652E+00
 ETOT  5   1.1640995149746     -1.287E-03 8.193E-07 2.487E-02
 ETOT  6   1.1640872155249     -1.230E-05 1.112E-08 5.336E-04
 ETOT  7   1.1640869893827     -2.261E-07 2.253E-10 3.391E-05
 ETOT  8   1.1640869602713     -2.911E-08 4.186E-11 1.780E-06
 ETOT  9   1.1640869589840     -1.287E-09 3.002E-12 8.773E-09
 ETOT 10   1.1640869589764     -7.621E-12 1.696E-14 1.474E-10
 ETOT 11   1.1640869589764      2.842E-14 2.983E-17 8.263E-11

 At SCF step   11       vres2   =  8.26E-11 < tolvrs=  1.00E-10 =>converged.
================================================================================

 ----iterations are completed or convergence reached----

 Mean square residual over all n,k,spin=  -6.0000E-02; max=  2.9826E-17
  -0.1250 -0.2500  0.0000    1  1.80194E-17 kpt; spin; max resid(k); each band:
 6.49E-19 1.80E-17-1.00E-01-1.00E-01-1.00E-01
  -0.2500 -0.1250  0.0000    1  2.42014E-17 kpt; spin; max resid(k); each band:
 2.42E-17 2.07E-18-1.00E-01-1.00E-01-1.00E-01
  -0.1250 -0.1250  0.1250    1  5.63652E-18 kpt; spin; max resid(k); each band:
 5.33E-19 5.64E-18-1.00E-01-1.00E-01-1.00E-01
  -0.1250  0.5000  0.0000    1  1.42148E-17 kpt; spin; max resid(k); each band:
 1.19E-17 1.42E-17-1.00E-01-1.00E-01-1.00E-01
  -0.2500 -0.3750  0.0000    1  1.82170E-18 kpt; spin; max resid(k); each band:
 1.34E-18 1.82E-18-1.00E-01-1.00E-01-1.00E-01
  -0.1250 -0.3750  0.1250    1  7.15893E-18 kpt; spin; max resid(k); each band:
 1.04E-18 7.16E-18-1.00E-01-1.00E-01-1.00E-01
  -0.3750 -0.2500  0.0000    1  2.14702E-17 kpt; spin; max resid(k); each band:
 2.15E-17 1.62E-17-1.00E-01-1.00E-01-1.00E-01
  -0.2500 -0.2500  0.1250    1  2.61716E-17 kpt; spin; max resid(k); each band:
 2.62E-17 2.62E-18-1.00E-01-1.00E-01-1.00E-01
  -0.1250 -0.2500  0.2500    1  2.98260E-17 kpt; spin; max resid(k); each band:
 2.98E-17 1.19E-17-1.00E-01-1.00E-01-1.00E-01
   0.5000 -0.1250  0.0000    1  3.47742E-18 kpt; spin; max resid(k); each band:
 3.48E-18 1.45E-18-1.00E-01-1.00E-01-1.00E-01
  -0.3750 -0.1250  0.1250    1  1.48899E-17 kpt; spin; max resid(k); each band:
 1.49E-17 1.32E-18-1.00E-01-1.00E-01-1.00E-01
  -0.2500 -0.1250  0.2500    1  1.98858E-17 kpt; spin; max resid(k); each band:
 1.56E-17 1.99E-17-1.00E-01-1.00E-01-1.00E-01
  -0.1250 -0.1250  0.3750    1  1.89939E-17 kpt; spin; max resid(k); each band:
 1.90E-17 5.19E-18-1.00E-01-1.00E-01-1.00E-01
  -0.1250  0.2500  0.0000    1  6.68014E-18 kpt; spin; max resid(k); each band:
 6.68E-18 3.24E-18-1.00E-01-1.00E-01-1.00E-01
  -0.2500  0.3750  0.0000    1  9.87781E-18 kpt; spin; max resid(k); each band:
 2.13E-18 9.88E-18-1.00E-01-1.00E-01-1.00E-01
  -0.1250  0.3750  0.1250    1  1.48859E-17 kpt; spin; max resid(k); each band:
 1.49E-17 1.36E-17-1.00E-01-1.00E-01-1.00E-01
  -0.3750  0.5000  0.0000    1  5.17681E-18 kpt; spin; max resid(k); each band:
 5.18E-18 1.64E-18-1.00E-01-1.00E-01-1.00E-01
  -0.2500  0.5000  0.1250    1  1.08642E-17 kpt; spin; max resid(k); each band:
 7.97E-18 1.09E-17-1.00E-01-1.00E-01-1.00E-01
  -0.1250  0.5000  0.2500    1  2.86741E-17 kpt; spin; max resid(k); each band:
 3.11E-18 2.87E-17-1.00E-01-1.00E-01-1.00E-01
   0.5000 -0.3750  0.0000    1  3.72164E-18 kpt; spin; max resid(k); each band:
 3.66E-18 3.72E-18-1.00E-01-1.00E-01-1.00E-01
  -0.3750 -0.3750  0.1250    1  3.26663E-18 kpt; spin; max resid(k); each band:
 3.27E-18 1.72E-18-1.00E-01-1.00E-01-1.00E-01
  -0.2500 -0.3750  0.2500    1  5.39510E-18 kpt; spin; max resid(k); each band:
 5.40E-18 1.09E-18-1.00E-01-1.00E-01-1.00E-01
  -0.1250 -0.3750  0.3750    1  1.90030E-18 kpt; spin; max resid(k); each band:
 1.06E-18 1.90E-18-1.00E-01-1.00E-01-1.00E-01
   0.3750 -0.2500  0.0000    1  7.61224E-18 kpt; spin; max resid(k); each band:
 7.61E-18 5.92E-18-1.00E-01-1.00E-01-1.00E-01
   0.5000 -0.2500  0.1250    1  3.68644E-18 kpt; spin; max resid(k); each band:
 3.69E-18 1.08E-18-1.00E-01-1.00E-01-1.00E-01
  -0.3750 -0.2500  0.2500    1  1.27906E-17 kpt; spin; max resid(k); each band:
 3.87E-18 1.28E-17-1.00E-01-1.00E-01-1.00E-01
  -0.2500 -0.2500  0.3750    1  7.23648E-18 kpt; spin; max resid(k); each band:
 7.24E-18 4.00E-18-1.00E-01-1.00E-01-1.00E-01
  -0.1250 -0.2500  0.5000    1  5.96269E-18 kpt; spin; max resid(k); each band:
 5.96E-18 1.81E-18-1.00E-01-1.00E-01-1.00E-01
   0.2500 -0.1250  0.0000    1  2.47493E-17 kpt; spin; max resid(k); each band:
 7.33E-19 2.47E-17-1.00E-01-1.00E-01-1.00E-01
   0.3750 -0.1250  0.1250    1  1.12166E-17 kpt; spin; max resid(k); each band:
 1.12E-17 9.76E-18-1.00E-01-1.00E-01-1.00E-01
   0.5000 -0.1250  0.2500    1  8.55274E-18 kpt; spin; max resid(k); each band:
 8.55E-18 3.30E-18-1.00E-01-1.00E-01-1.00E-01
  -0.3750 -0.1250  0.3750    1  1.30276E-17 kpt; spin; max resid(k); each band:
 1.30E-17 1.05E-17-1.00E-01-1.00E-01-1.00E-01
  -0.2500 -0.1250  0.5000    1  6.51601E-18 kpt; spin; max resid(k); each band:
 2.95E-18 6.52E-18-1.00E-01-1.00E-01-1.00E-01
  -0.1250 -0.1250 -0.3750    1  1.98323E-17 kpt; spin; max resid(k); each band:
 1.02E-17 1.98E-17-1.00E-01-1.00E-01-1.00E-01
  -0.1250  0.0000  0.0000    1  4.74335E-18 kpt; spin; max resid(k); each band:
 3.16E-19 4.74E-18-1.00E-01-1.00E-01-1.00E-01
  -0.2500  0.1250  0.0000    1  1.55147E-17 kpt; spin; max resid(k); each band:
 1.55E-17 1.32E-17-1.00E-01-1.00E-01-1.00E-01
  -0.1250  0.1250  0.1250    1  2.63113E-17 kpt; spin; max resid(k); each band:
 2.63E-17 3.16E-18-1.00E-01-1.00E-01-1.00E-01
  -0.3750  0.2500  0.0000    1  3.37485E-18 kpt; spin; max resid(k); each band:
 3.37E-18 1.97E-18-1.00E-01-1.00E-01-1.00E-01
  -0.2500  0.2500  0.1250    1  2.61188E-18 kpt; spin; max resid(k); each band:
 2.24E-18 2.61E-18-1.00E-01-1.00E-01-1.00E-01
  -0.1250  0.2500  0.2500    1  9.58045E-18 kpt; spin; max resid(k); each band:
 9.58E-18 4.49E-18-1.00E-01-1.00E-01-1.00E-01
   0.5000  0.3750  0.0000    1  4.73283E-18 kpt; spin; max resid(k); each band:
 2.56E-18 4.73E-18-1.00E-01-1.00E-01-1.00E-01
  -0.3750  0.3750  0.1250    1  1.72762E-17 kpt; spin; max resid(k); each band:
 3.90E-18 1.73E-17-1.00E-01-1.00E-01-1.00E-01
  -0.2500  0.3750  0.2500    1  3.43505E-18 kpt; spin; max resid(k); each band:
 3.44E-18 1.87E-18-1.00E-01-1.00E-01-1.00E-01
  -0.1250  0.3750  0.3750    1  1.22286E-17 kpt; spin; max resid(k); each band:
 7.45E-18 1.22E-17-1.00E-01-1.00E-01-1.00E-01
   0.3750  0.5000  0.0000    1  2.79701E-17 kpt; spin; max resid(k); each band:
 4.89E-18 2.80E-17-1.00E-01-1.00E-01-1.00E-01
   0.5000  0.5000  0.1250    1  3.93585E-18 kpt; spin; max resid(k); each band:
 4.69E-19 3.94E-18-1.00E-01-1.00E-01-1.00E-01
  -0.3750  0.5000  0.2500    1  2.38661E-17 kpt; spin; max resid(k); each band:
 7.16E-19 2.39E-17-1.00E-01-1.00E-01-1.00E-01
  -0.2500  0.5000  0.3750    1  1.27835E-18 kpt; spin; max resid(k); each band:
 1.23E-18 1.28E-18-1.00E-01-1.00E-01-1.00E-01
  -0.1250  0.5000  0.5000    1  8.37435E-18 kpt; spin; max resid(k); each band:
 2.90E-18 8.37E-18-1.00E-01-1.00E-01-1.00E-01
   0.2500 -0.3750  0.0000    1  6.35262E-18 kpt; spin; max resid(k); each band:
 6.35E-18 1.68E-18-1.00E-01-1.00E-01-1.00E-01
 outwf : prtvol=0 or 1, do not print more k-points.


 Thirteen components of 2nd-order total energy (hartree) are
 1,2,3: 0th-order hamiltonian combined with 1st-order wavefunctions
     kin0=   1.50775457E+01 eigvalue=  -1.18142672E+00  local=  -1.21164646E+01
 4,5,6: 1st-order hamiltonian combined with 1st and 0th-order wfs
 loc psp =   3.77810342E+00  Hartree=   8.55861762E+00     xc=  -1.58972726E+00
 note that "loc psp" includes a xc core correction that could be resolved
 7,8,9: eventually, occupation + non-local contributions
    edocc=   2.50819135E+00     enl0=   9.11128407E+00   enl1=  -4.45141443E+01
 1-9 gives the relaxation energy (to be shifted if some occ is /=2.0)
   erelax=  -2.03680208E+01
 10,11,12 Non-relaxation  contributions : frozen-wavefunctions and Ewald
 fr.local=  -1.52800178E+01 fr.nonlo=   2.52291526E+01  Ewald=   1.15829729E+01
 13,14 Frozen wf xc core corrections (1) and (2)
 frxc 1  =   0.00000000E+00  frxc 2 =   0.00000000E+00
 Resulting in :
 2DEtotal=    0.1164086959E+01 Ha. Also 2DEtotal=    0.316764170871E+02 eV
    (2DErelax=   -2.0368020790E+01 Ha. 2DEnonrelax=    2.1532107749E+01 Ha)
    (  non-var. 2DEtotal :    1.1640872828E+00 Ha)


--------------------------------------------------------------------------------
 Perturbation wavevector (in red.coord.)   0.250000 -0.125000  0.125000
 Perturbation : displacement of atom   1   along direction   2
 The set of symmetries contains only one element for this perturbation.
 symkpt : not enough symmetry to change the number of k points.

--------------------------------------------------------------------------------

-inwffil : will read wavefunctions from disk file tG.i_WFK
-P-0000 - newkpt: read input wf with ikpt,npw=   1     162, make ikpt,npw=   1     162
-P-0000 - newkpt: read input wf with ikpt,npw=   1     162, make ikpt,npw=   2     162
-P-0000 - newkpt: read input wf with ikpt,npw=   1     162, make ikpt,npw=   3     162
-P-0000 - newkpt: read input wf with ikpt,npw=   2     165, make ikpt,npw=   4     165
-P-0000 - newkpt: read input wf with ikpt,npw=   3     163, make ikpt,npw=   5     163
-P-0000 - newkpt: read input wf with ikpt,npw=   4     161, make ikpt,npw=   6     161
-P-0000 - newkpt: read input wf with ikpt,npw=   3     163, make ikpt,npw=   7     163
-P-0000 - newkpt: read input wf with ikpt,npw=   3     163, make ikpt,npw=   8     163
-P-0000 - newkpt: read input wf with ikpt,npw=   4     161, make ikpt,npw=   9     161
-P-0000 - newkpt: read input wf with ikpt,npw=   2     165, make ikpt,npw=  10     165
-P-0000 - newkpt: read input wf with ikpt,npw=   4     161, make ikpt,npw=  11     161
-P-0000 - newkpt: read input wf with ikpt,npw=   4     161, make ikpt,npw=  12     161
-P-0000 - newkpt: read input wf with ikpt,npw=   2     165, make ikpt,npw=  13     165
-P-0000 - newkpt: read input wf with ikpt,npw=   5     159, make ikpt,npw=  14     159
-P-0000 - newkpt: read input wf with ikpt,npw=   6     165, make ikpt,npw=  15     165
-P-0000 - newkpt: read input wf with ikpt,npw=   4     161, make ikpt,npw=  16     161
-P-0000 - newkpt: read input wf with ikpt,npw=   7     166, make ikpt,npw=  17     166
-P-0000 - newkpt: read input wf with ikpt,npw=   8     165, make ikpt,npw=  18     165
-P-0000 - newkpt: read input wf with ikpt,npw=   8     165, make ikpt,npw=  19     165
-P-0000 - newkpt: read input wf with ikpt,npw=   7     166, make ikpt,npw=  20     166
-P-0000 - newkpt: read input wf with ikpt,npw=   7     166, make ikpt,npw=  21     166
-P-0000 - newkpt: read input wf with ikpt,npw=   8     165, make ikpt,npw=  22     165
-P-0000 - newkpt: read input wf with ikpt,npw=   8     165, make ikpt,npw=  23     165
-P-0000 - newkpt: read input wf with ikpt,npw=   6     165, make ikpt,npw=  24     165
-P-0000 - newkpt: read input wf with ikpt,npw=   8     165, make ikpt,npw=  25     165
-P-0000 - newkpt: read input wf with ikpt,npw=   8     165, make ikpt,npw=  26     165
 
--------------------------------------------------------------------------------

-inwffil : will read wavefunctions from disk file tG.i_WFQ
-P-0000 - newkpt: read input wf with ikpt,npw=   2     165, make ikpt,npw=   1     165
-P-0000 - newkpt: read input wf with ikpt,npw=   5     159, make ikpt,npw=   2     159
-P-0000 - newkpt: read input wf with ikpt,npw=   4     161, make ikpt,npw=   3     161
-P-0000 - newkpt: read input wf with ikpt,npw=   5     159, make ikpt,npw=   4     159
-P-0000 - newkpt: read input wf with ikpt,npw=   2     165, make ikpt,npw=   5     165
-P-0000 - newkpt: read input wf with ikpt,npw=   4     161, make ikpt,npw=   6     161
-P-0000 - newkpt: read input wf with ikpt,npw=   4     161, make ikpt,npw=   7     161
-P-0000 - newkpt: read input wf with ikpt,npw=   6     165, make ikpt,npw=   8     165
-P-0000 - newkpt: read input wf with ikpt,npw=   8     165, make ikpt,npw=   9     165
-P-0000 - newkpt: read input wf with ikpt,npw=   3     163, make ikpt,npw=  10     163
-P-0000 - newkpt: read input wf with ikpt,npw=   4     161, make ikpt,npw=  11     161
-P-0000 - newkpt: read input wf with ikpt,npw=   6     165, make ikpt,npw=  12     165
-P-0000 - newkpt: read input wf with ikpt,npw=   8     165, make ikpt,npw=  13     165
-P-0000 - newkpt: read input wf with ikpt,npw=   9     168, make ikpt,npw=  14     168
-P-0000 - newkpt: read input wf with ikpt,npw=   1     162, make ikpt,npw=  15     162
-P-0000 - newkpt: read input wf with ikpt,npw=   1     162, make ikpt,npw=  16     162
-P-0000 - newkpt: read input wf with ikpt,npw=   4     161, make ikpt,npw=  17     161
-P-0000 - newkpt: read input wf with ikpt,npw=   3     163, make ikpt,npw=  18     163
-P-0000 - newkpt: read input wf with ikpt,npw=   3     163, make ikpt,npw=  19     163
-P-0000 - newkpt: read input wf with ikpt,npw=   8     165, make ikpt,npw=  20     165
-P-0000 - newkpt: read input wf with ikpt,npw=   8     165, make ikpt,npw=  21     165
-P-0000 - newkpt: read input wf with ikpt,npw=   7     166, make ikpt,npw=  22     166
-P-0000 - newkpt: read input wf with ikpt,npw=   7     166, make ikpt,npw=  23     166
-P-0000 - newkpt: read input wf with ikpt,npw=   7     166, make ikpt,npw=  24     166
-P-0000 - newkpt: read input wf with ikpt,npw=   8     165, make ikpt,npw=  25     165
-P-0000 - newkpt: read input wf with ikpt,npw=   8     165, make ikpt,npw=  26     165
 
 loper3 : total number of electrons, from k and k+q
  fully or partially occupied states are    3.000000E+00 and    3.000000E+00.
 Initialisation of the first-order wave-functions :
  ireadwf=   0
P newkpt: treating      5 bands with npw=     165 for ikpt=   1 by node    0
P newkpt: treating      5 bands with npw=     159 for ikpt=   2 by node    0
P newkpt: treating      5 bands with npw=     161 for ikpt=   3 by node    0
P newkpt: treating      5 bands with npw=     159 for ikpt=   4 by node    0
P newkpt: treating      5 bands with npw=     165 for ikpt=   5 by node    0
P newkpt: treating      5 bands with npw=     161 for ikpt=   6 by node    0
P newkpt: treating      5 bands with npw=     161 for ikpt=   7 by node    0
P newkpt: treating      5 bands with npw=     165 for ikpt=   8 by node    0
P newkpt: treating      5 bands with npw=     165 for ikpt=   9 by node    0
P newkpt: treating      5 bands with npw=     163 for ikpt=  10 by node    0
P newkpt: treating      5 bands with npw=     161 for ikpt=  11 by node    0
P newkpt: treating      5 bands with npw=     165 for ikpt=  12 by node    0
P newkpt: treating      5 bands with npw=     165 for ikpt=  13 by node    0
P newkpt: treating      5 bands with npw=     168 for ikpt=  14 by node    0
P newkpt: treating      5 bands with npw=     162 for ikpt=  15 by node    0
P newkpt: treating      5 bands with npw=     162 for ikpt=  16 by node    0
P newkpt: treating      5 bands with npw=     161 for ikpt=  17 by node    0
P newkpt: treating      5 bands with npw=     163 for ikpt=  18 by node    0
P newkpt: treating      5 bands with npw=     163 for ikpt=  19 by node    0
P newkpt: treating      5 bands with npw=     165 for ikpt=  20 by node    0
P newkpt: treating      5 bands with npw=     165 for ikpt=  21 by node    0
P newkpt: treating      5 bands with npw=     166 for ikpt=  22 by node    0
P newkpt: treating      5 bands with npw=     166 for ikpt=  23 by node    0
P newkpt: treating      5 bands with npw=     166 for ikpt=  24 by node    0
P newkpt: treating      5 bands with npw=     165 for ikpt=  25 by node    0
P newkpt: treating      2 bands with npw=     165 for ikpt=  26 by node    1
P newkpt: treating      5 bands with npw=     166 for ikpt=  27 by node    1
P newkpt: treating      5 bands with npw=     166 for ikpt=  28 by node    1
P newkpt: treating      5 bands with npw=     165 for ikpt=  29 by node    1
P newkpt: treating      5 bands with npw=     165 for ikpt=  30 by node    1
P newkpt: treating      5 bands with npw=     165 for ikpt=  31 by node    1
P newkpt: treating      5 bands with npw=     161 for ikpt=  32 by node    1
P newkpt: treating      5 bands with npw=     163 for ikpt=  33 by node    1
P newkpt: treating      5 bands with npw=     163 for ikpt=  34 by node    1
P newkpt: treating      5 bands with npw=     162 for ikpt=  35 by node    1
P newkpt: treating      5 bands with npw=     168 for ikpt=  36 by node    1
P newkpt: treating      5 bands with npw=     162 for ikpt=  37 by node    1
P newkpt: treating      5 bands with npw=     162 for ikpt=  38 by node    1
P newkpt: treating      5 bands with npw=     162 for ikpt=  39 by node    1
P newkpt: treating      5 bands with npw=     159 for ikpt=  40 by node    1
P newkpt: treating      5 bands with npw=     161 for ikpt=  41 by node    1
P newkpt: treating      5 bands with npw=     163 for ikpt=  42 by node    1
P newkpt: treating      5 bands with npw=     163 for ikpt=  43 by node    1
P newkpt: treating      5 bands with npw=     161 for ikpt=  44 by node    1
P newkpt: treating      5 bands with npw=     165 for ikpt=  45 by node    1
P newkpt: treating      5 bands with npw=     165 for ikpt=  46 by node    1
P newkpt: treating      5 bands with npw=     166 for ikpt=  47 by node    1
P newkpt: treating      5 bands with npw=     166 for ikpt=  48 by node    1
P newkpt: treating      5 bands with npw=     165 for ikpt=  49 by node    1
P newkpt: treating      5 bands with npw=     166 for ikpt=  50 by node    1
  newkpt: prtvol=0 or 1, do not print more k-points.
 

     iter   2DEtotal(Ha)        deltaE(Ha) residm    vres2
-ETOT  1   53.314684338370      3.820E+01 1.274E-01 1.289E+05
 ETOT  2   2.4810609921769     -5.083E+01 4.656E-02 4.167E+03
 ETOT  3  0.81285918448430     -1.668E+00 1.211E-03 3.112E+01
 ETOT  4  0.77480462970938     -3.805E-02 7.392E-05 1.446E+00
 ETOT  5  0.77387434186685     -9.303E-04 2.085E-06 1.032E-02
 ETOT  6  0.77386876832761     -5.574E-06 7.159E-09 1.185E-04
 ETOT  7  0.77386871823945     -5.009E-08 5.614E-11 1.613E-05
 ETOT  8  0.77386870506649     -1.317E-08 2.874E-11 1.374E-06
 ETOT  9  0.77386870430833     -7.582E-10 1.361E-12 7.468E-09
 ETOT 10  0.77386870430317     -5.159E-12 1.132E-14 8.899E-11

 At SCF step   10       vres2   =  8.90E-11 < tolvrs=  1.00E-10 =>converged.
================================================================================

 ----iterations are completed or convergence reached----

 Mean square residual over all n,k,spin=  -6.0000E-02; max=  1.1316E-14
  -0.1250 -0.2500  0.0000    1  6.38912E-15 kpt; spin; max resid(k); each band:
 2.00E-15 6.39E-15-1.00E-01-1.00E-01-1.00E-01
  -0.2500 -0.1250  0.0000    1  8.19910E-15 kpt; spin; max resid(k); each band:
 3.29E-15 8.20E-15-1.00E-01-1.00E-01-1.00E-01
  -0.1250 -0.1250  0.1250    1  5.95846E-15 kpt; spin; max resid(k); each band:
 3.03E-15 5.96E-15-1.00E-01-1.00E-01-1.00E-01
  -0.1250  0.5000  0.0000    1  1.13161E-14 kpt; spin; max resid(k); each band:
 9.52E-16 1.13E-14-1.00E-01-1.00E-01-1.00E-01
  -0.2500 -0.3750  0.0000    1  3.99091E-15 kpt; spin; max resid(k); each band:
 1.55E-15 3.99E-15-1.00E-01-1.00E-01-1.00E-01
  -0.1250 -0.3750  0.1250    1  9.24323E-15 kpt; spin; max resid(k); each band:
 1.69E-15 9.24E-15-1.00E-01-1.00E-01-1.00E-01
  -0.3750 -0.2500  0.0000    1  7.67389E-15 kpt; spin; max resid(k); each band:
 2.68E-15 7.67E-15-1.00E-01-1.00E-01-1.00E-01
  -0.2500 -0.2500  0.1250    1  7.67611E-15 kpt; spin; max resid(k); each band:
 2.41E-15 7.68E-15-1.00E-01-1.00E-01-1.00E-01
  -0.1250 -0.2500  0.2500    1  8.89947E-15 kpt; spin; max resid(k); each band:
 2.58E-15 8.90E-15-1.00E-01-1.00E-01-1.00E-01
   0.5000 -0.1250  0.0000    1  5.43801E-15 kpt; spin; max resid(k); each band:
 3.28E-15 5.44E-15-1.00E-01-1.00E-01-1.00E-01
  -0.3750 -0.1250  0.1250    1  4.93783E-15 kpt; spin; max resid(k); each band:
 3.11E-15 4.94E-15-1.00E-01-1.00E-01-1.00E-01
  -0.2500 -0.1250  0.2500    1  8.41512E-15 kpt; spin; max resid(k); each band:
 3.18E-15 8.42E-15-1.00E-01-1.00E-01-1.00E-01
  -0.1250 -0.1250  0.3750    1  9.48832E-15 kpt; spin; max resid(k); each band:
 3.58E-15 9.49E-15-1.00E-01-1.00E-01-1.00E-01
  -0.1250  0.2500  0.0000    1  8.22190E-16 kpt; spin; max resid(k); each band:
 4.08E-16 8.22E-16-1.00E-01-1.00E-01-1.00E-01
  -0.2500  0.3750  0.0000    1  7.11671E-15 kpt; spin; max resid(k); each band:
 7.12E-15 6.33E-15-1.00E-01-1.00E-01-1.00E-01
  -0.1250  0.3750  0.1250    1  9.19932E-15 kpt; spin; max resid(k); each band:
 9.20E-15 7.56E-15-1.00E-01-1.00E-01-1.00E-01
  -0.3750  0.5000  0.0000    1  7.14062E-15 kpt; spin; max resid(k); each band:
 2.22E-15 7.14E-15-1.00E-01-1.00E-01-1.00E-01
  -0.2500  0.5000  0.1250    1  9.90851E-15 kpt; spin; max resid(k); each band:
 2.35E-15 9.91E-15-1.00E-01-1.00E-01-1.00E-01
  -0.1250  0.5000  0.2500    1  5.62618E-15 kpt; spin; max resid(k); each band:
 8.77E-16 5.63E-15-1.00E-01-1.00E-01-1.00E-01
   0.5000 -0.3750  0.0000    1  3.90205E-15 kpt; spin; max resid(k); each band:
 3.90E-15 2.74E-15-1.00E-01-1.00E-01-1.00E-01
  -0.3750 -0.3750  0.1250    1  4.12928E-15 kpt; spin; max resid(k); each band:
 3.87E-15 4.13E-15-1.00E-01-1.00E-01-1.00E-01
  -0.2500 -0.3750  0.2500    1  7.25500E-15 kpt; spin; max resid(k); each band:
 4.71E-15 7.25E-15-1.00E-01-1.00E-01-1.00E-01
  -0.1250 -0.3750  0.3750    1  5.36618E-15 kpt; spin; max resid(k); each band:
 3.89E-15 5.37E-15-1.00E-01-1.00E-01-1.00E-01
   0.3750 -0.2500  0.0000    1  6.87659E-15 kpt; spin; max resid(k); each band:
 2.54E-15 6.88E-15-1.00E-01-1.00E-01-1.00E-01
   0.5000 -0.2500  0.1250    1  4.56432E-15 kpt; spin; max resid(k); each band:
 4.25E-15 4.56E-15-1.00E-01-1.00E-01-1.00E-01
  -0.3750 -0.2500  0.2500    1  8.24623E-15 kpt; spin; max resid(k); each band:
 4.57E-15 8.25E-15-1.00E-01-1.00E-01-1.00E-01
  -0.2500 -0.2500  0.3750    1  6.72284E-15 kpt; spin; max resid(k); each band:
 6.72E-15 5.99E-15-1.00E-01-1.00E-01-1.00E-01
  -0.1250 -0.2500  0.5000    1  5.12065E-15 kpt; spin; max resid(k); each band:
 3.96E-15 5.12E-15-1.00E-01-1.00E-01-1.00E-01
   0.2500 -0.1250  0.0000    1  8.70300E-15 kpt; spin; max resid(k); each band:
 3.34E-15 8.70E-15-1.00E-01-1.00E-01-1.00E-01
   0.3750 -0.1250  0.1250    1  4.60069E-15 kpt; spin; max resid(k); each band:
 2.80E-15 4.60E-15-1.00E-01-1.00E-01-1.00E-01
   0.5000 -0.1250  0.2500    1  3.81930E-15 kpt; spin; max resid(k); each band:
 2.95E-15 3.82E-15-1.00E-01-1.00E-01-1.00E-01
  -0.3750 -0.1250  0.3750    1  6.88786E-15 kpt; spin; max resid(k); each band:
 6.89E-15 5.02E-15-1.00E-01-1.00E-01-1.00E-01
  -0.2500 -0.1250  0.5000    1  7.52940E-15 kpt; spin; max resid(k); each band:
 7.53E-15 7.52E-16-1.00E-01-1.00E-01-1.00E-01
  -0.1250 -0.1250 -0.3750    1  5.37088E-15 kpt; spin; max resid(k); each band:
 3.92E-15 5.37E-15-1.00E-01-1.00E-01-1.00E-01
  -0.1250  0.0000  0.0000    1  5.66579E-15 kpt; spin; max resid(k); each band:
 5.67E-15 2.99E-15-1.00E-01-1.00E-01-1.00E-01
  -0.2500  0.1250  0.0000    1  7.92728E-15 kpt; spin; max resid(k); each band:
 6.72E-15 7.93E-15-1.00E-01-1.00E-01-1.00E-01
  -0.1250  0.1250  0.1250    1  8.11300E-15 kpt; spin; max resid(k); each band:
 5.95E-15 8.11E-15-1.00E-01-1.00E-01-1.00E-01
  -0.3750  0.2500  0.0000    1  8.39760E-15 kpt; spin; max resid(k); each band:
 8.40E-15 8.36E-15-1.00E-01-1.00E-01-1.00E-01
  -0.2500  0.2500  0.1250    1  8.83750E-15 kpt; spin; max resid(k); each band:
 8.68E-15 8.84E-15-1.00E-01-1.00E-01-1.00E-01
  -0.1250  0.2500  0.2500    1  8.65381E-15 kpt; spin; max resid(k); each band:
 8.65E-15 4.95E-15-1.00E-01-1.00E-01-1.00E-01
   0.5000  0.3750  0.0000    1  4.55274E-15 kpt; spin; max resid(k); each band:
 4.55E-15 3.36E-15-1.00E-01-1.00E-01-1.00E-01
  -0.3750  0.3750  0.1250    1  6.87826E-15 kpt; spin; max resid(k); each band:
 2.84E-15 6.88E-15-1.00E-01-1.00E-01-1.00E-01
  -0.2500  0.3750  0.2500    1  8.76501E-15 kpt; spin; max resid(k); each band:
 1.82E-15 8.77E-15-1.00E-01-1.00E-01-1.00E-01
  -0.1250  0.3750  0.3750    1  6.56270E-15 kpt; spin; max resid(k); each band:
 4.08E-15 6.56E-15-1.00E-01-1.00E-01-1.00E-01
   0.3750  0.5000  0.0000    1  2.94550E-15 kpt; spin; max resid(k); each band:
 2.95E-15 5.49E-16-1.00E-01-1.00E-01-1.00E-01
   0.5000  0.5000  0.1250    1  6.88036E-15 kpt; spin; max resid(k); each band:
 2.17E-15 6.88E-15-1.00E-01-1.00E-01-1.00E-01
  -0.3750  0.5000  0.2500    1  4.87175E-15 kpt; spin; max resid(k); each band:
 1.27E-15 4.87E-15-1.00E-01-1.00E-01-1.00E-01
  -0.2500  0.5000  0.3750    1  1.09253E-14 kpt; spin; max resid(k); each band:
 3.67E-15 1.09E-14-1.00E-01-1.00E-01-1.00E-01
  -0.1250  0.5000  0.5000    1  5.70454E-15 kpt; spin; max resid(k); each band:
 3.29E-15 5.70E-15-1.00E-01-1.00E-01-1.00E-01
   0.2500 -0.3750  0.0000    1  6.61398E-15 kpt; spin; max resid(k); each band:
 2.38E-15 6.61E-15-1.00E-01-1.00E-01-1.00E-01
 outwf : prtvol=0 or 1, do not print more k-points.


 Thirteen components of 2nd-order total energy (hartree) are
 1,2,3: 0th-order hamiltonian combined with 1st-order wavefunctions
     kin0=   1.47423189E+01 eigvalue=  -1.12034304E+00  local=  -1.16563696E+01
 4,5,6: 1st-order hamiltonian combined with 1st and 0th-order wfs
 loc psp =   1.71915175E+01  Hartree=   3.25670636E+00     xc=  -1.27864316E+00
 note that "loc psp" includes a xc core correction that could be resolved
 7,8,9: eventually, occupation + non-local contributions
    edocc=   1.69421993E+00     enl0=   8.70390002E+00   enl1=  -4.58750968E+01
 1-9 gives the relaxation energy (to be shifted if some occ is /=2.0)
   erelax=  -1.43417898E+01
 10,11,12 Non-relaxation  contributions : frozen-wavefunctions and Ewald
 fr.local=  -1.52800178E+01 fr.nonlo=   2.52291526E+01  Ewald=   5.16652372E+00
 13,14 Frozen wf xc core corrections (1) and (2)
 frxc 1  =   0.00000000E+00  frxc 2 =   0.00000000E+00
 Resulting in :
 2DEtotal=    0.7738687043E+00 Ha. Also 2DEtotal=    0.210580383700E+02 eV
    (2DErelax=   -1.4341789811E+01 Ha. 2DEnonrelax=    1.5115658515E+01 Ha)
    (  non-var. 2DEtotal :    7.7386887602E-01 Ha)


--------------------------------------------------------------------------------
 Perturbation wavevector (in red.coord.)   0.250000 -0.125000  0.125000
 Perturbation : displacement of atom   1   along direction   3
 Found     2 symmetries that leave the perturbation invariant.
 symkpt : the number of k-points, thanks to the symmetries,
 is reduced to   128 .

--------------------------------------------------------------------------------

-inwffil : will read wavefunctions from disk file tG.i_WFK
-P-0000 - newkpt: read input wf with ikpt,npw=   1     162, make ikpt,npw=   1     162
-P-0000 - newkpt: read input wf with ikpt,npw=   1     162, make ikpt,npw=   2     162
-P-0000 - newkpt: read input wf with ikpt,npw=   1     162, make ikpt,npw=   3     162
-P-0000 - newkpt: read input wf with ikpt,npw=   2     165, make ikpt,npw=   4     165
-P-0000 - newkpt: read input wf with ikpt,npw=   3     163, make ikpt,npw=   5     163
-P-0000 - newkpt: read input wf with ikpt,npw=   4     161, make ikpt,npw=   6     161
-P-0000 - newkpt: read input wf with ikpt,npw=   3     163, make ikpt,npw=   7     163
-P-0000 - newkpt: read input wf with ikpt,npw=   3     163, make ikpt,npw=   8     163
-P-0000 - newkpt: read input wf with ikpt,npw=   4     161, make ikpt,npw=   9     161
-P-0000 - newkpt: read input wf with ikpt,npw=   2     165, make ikpt,npw=  10     165
-P-0000 - newkpt: read input wf with ikpt,npw=   4     161, make ikpt,npw=  11     161
-P-0000 - newkpt: read input wf with ikpt,npw=   4     161, make ikpt,npw=  12     161
-P-0000 - newkpt: read input wf with ikpt,npw=   2     165, make ikpt,npw=  13     165
 
--------------------------------------------------------------------------------

-inwffil : will read wavefunctions from disk file tG.i_WFQ
-P-0000 - newkpt: read input wf with ikpt,npw=   2     165, make ikpt,npw=   1     165
-P-0000 - newkpt: read input wf with ikpt,npw=   5     159, make ikpt,npw=   2     159
-P-0000 - newkpt: read input wf with ikpt,npw=   4     161, make ikpt,npw=   3     161
-P-0000 - newkpt: read input wf with ikpt,npw=   5     159, make ikpt,npw=   4     159
-P-0000 - newkpt: read input wf with ikpt,npw=   2     165, make ikpt,npw=   5     165
-P-0000 - newkpt: read input wf with ikpt,npw=   4     161, make ikpt,npw=   6     161
-P-0000 - newkpt: read input wf with ikpt,npw=   4     161, make ikpt,npw=   7     161
-P-0000 - newkpt: read input wf with ikpt,npw=   6     165, make ikpt,npw=   8     165
-P-0000 - newkpt: read input wf with ikpt,npw=   8     165, make ikpt,npw=   9     165
-P-0000 - newkpt: read input wf with ikpt,npw=   3     163, make ikpt,npw=  10     163
-P-0000 - newkpt: read input wf with ikpt,npw=   4     161, make ikpt,npw=  11     161
-P-0000 - newkpt: read input wf with ikpt,npw=   6     165, make ikpt,npw=  12     165
-P-0000 - newkpt: read input wf with ikpt,npw=   8     165, make ikpt,npw=  13     165
 
 loper3 : total number of electrons, from k and k+q
  fully or partially occupied states are    3.000000E+00 and    3.000000E+00.
 Initialisation of the first-order wave-functions :
  ireadwf=   0
P newkpt: treating      5 bands with npw=     165 for ikpt=   1 by node    0
P newkpt: treating      5 bands with npw=     159 for ikpt=   2 by node    0
P newkpt: treating      5 bands with npw=     161 for ikpt=   3 by node    0
P newkpt: treating      5 bands with npw=     159 for ikpt=   4 by node    0
P newkpt: treating      5 bands with npw=     165 for ikpt=   5 by node    0
P newkpt: treating      5 bands with npw=     161 for ikpt=   6 by node    0
P newkpt: treating      5 bands with npw=     161 for ikpt=   7 by node    0
P newkpt: treating      5 bands with npw=     165 for ikpt=   8 by node    0
P newkpt: treating      5 bands with npw=     165 for ikpt=   9 by node    0
P newkpt: treating      5 bands with npw=     163 for ikpt=  10 by node    0
P newkpt: treating      5 bands with npw=     161 for ikpt=  11 by node    0
P newkpt: treating      5 bands with npw=     165 for ikpt=  12 by node    0
P newkpt: treating      1 bands with npw=     165 for ikpt=  13 by node    1
P newkpt: treating      5 bands with npw=     168 for ikpt=  14 by node    1
P newkpt: treating      5 bands with npw=     162 for ikpt=  15 by node    1
P newkpt: treating      5 bands with npw=     162 for ikpt=  16 by node    1
P newkpt: treating      5 bands with npw=     161 for ikpt=  17 by node    1
P newkpt: treating      5 bands with npw=     163 for ikpt=  18 by node    1
P newkpt: treating      5 bands with npw=     163 for ikpt=  19 by node    1
P newkpt: treating      5 bands with npw=     165 for ikpt=  20 by node    1
P newkpt: treating      5 bands with npw=     165 for ikpt=  21 by node    1
P newkpt: treating      5 bands with npw=     166 for ikpt=  22 by node    1
P newkpt: treating      5 bands with npw=     166 for ikpt=  23 by node    1
P newkpt: treating      5 bands with npw=     166 for ikpt=  24 by node    1
P newkpt: treating      5 bands with npw=     165 for ikpt=  25 by node    1
P newkpt: treating      2 bands with npw=     165 for ikpt=  26 by node    2
P newkpt: treating      5 bands with npw=     166 for ikpt=  27 by node    2
P newkpt: treating      5 bands with npw=     166 for ikpt=  28 by node    2
P newkpt: treating      5 bands with npw=     165 for ikpt=  29 by node    2
P newkpt: treating      5 bands with npw=     165 for ikpt=  30 by node    2
P newkpt: treating      5 bands with npw=     165 for ikpt=  31 by node    2
P newkpt: treating      5 bands with npw=     161 for ikpt=  32 by node    2
P newkpt: treating      5 bands with npw=     163 for ikpt=  33 by node    2
P newkpt: treating      5 bands with npw=     163 for ikpt=  34 by node    2
P newkpt: treating      5 bands with npw=     162 for ikpt=  35 by node    2
P newkpt: treating      5 bands with npw=     162 for ikpt=  36 by node    2
P newkpt: treating      5 bands with npw=     159 for ikpt=  37 by node    2
P newkpt: treating      5 bands with npw=     161 for ikpt=  38 by node    2
P newkpt: treating      3 bands with npw=     165 for ikpt=  39 by node    3
P newkpt: treating      5 bands with npw=     165 for ikpt=  40 by node    3
P newkpt: treating      5 bands with npw=     161 for ikpt=  41 by node    3
P newkpt: treating      5 bands with npw=     161 for ikpt=  42 by node    3
P newkpt: treating      5 bands with npw=     165 for ikpt=  43 by node    3
P newkpt: treating      5 bands with npw=     165 for ikpt=  44 by node    3
P newkpt: treating      5 bands with npw=     161 for ikpt=  45 by node    3
P newkpt: treating      5 bands with npw=     159 for ikpt=  46 by node    3
P newkpt: treating      5 bands with npw=     162 for ikpt=  47 by node    3
P newkpt: treating      5 bands with npw=     162 for ikpt=  48 by node    3
P newkpt: treating      5 bands with npw=     159 for ikpt=  49 by node    3
P newkpt: treating      5 bands with npw=     162 for ikpt=  50 by node    3
  newkpt: prtvol=0 or 1, do not print more k-points.
 

     iter   2DEtotal(Ha)        deltaE(Ha) residm    vres2
-ETOT  1   52.393450356682      3.896E+01 7.929E-02 1.274E+05
 ETOT  2   2.0161707987386     -5.038E+01 4.939E-02 3.174E+03
 ETOT  3  0.72759529354613     -1.289E+00 9.826E-04 8.625E+00
 ETOT  4  0.72161764040791     -5.978E-03 7.935E-06 6.460E-01
 ETOT  5  0.72125894756073     -3.587E-04 5.686E-07 2.197E-03
 ETOT  6  0.72125743895261     -1.509E-06 2.332E-09 1.794E-05
 ETOT  7  0.72125743420031     -4.752E-09 6.255E-12 8.681E-06
 ETOT  8  0.72125742882386     -5.376E-09 8.481E-12 8.376E-07
 ETOT  9  0.72125742835402     -4.698E-10 9.011E-13 2.328E-09
 ETOT 10  0.72125742835291     -1.108E-12 3.736E-15 3.483E-11

 At SCF step   10       vres2   =  3.48E-11 < tolvrs=  1.00E-10 =>converged.
================================================================================

 ----iterations are completed or convergence reached----

 Mean square residual over all n,k,spin=  -6.0000E-02; max=  3.7356E-15
  -0.1250 -0.2500  0.0000    1  2.35857E-15 kpt; spin; max resid(k); each band:
 2.36E-15 1.99E-15-1.00E-01-1.00E-01-1.00E-01
  -0.2500 -0.1250  0.0000    1  2.16912E-15 kpt; spin; max resid(k); each band:
 1.57E-15 2.17E-15-1.00E-01-1.00E-01-1.00E-01
  -0.1250 -0.1250  0.1250    1  1.54320E-15 kpt; spin; max resid(k); each band:
 1.54E-15 6.53E-16-1.00E-01-1.00E-01-1.00E-01
  -0.1250  0.5000  0.0000    1  2.03283E-15 kpt; spin; max resid(k); each band:
 1.10E-15 2.03E-15-1.00E-01-1.00E-01-1.00E-01
  -0.2500 -0.3750  0.0000    1  2.69396E-15 kpt; spin; max resid(k); each band:
 1.70E-15 2.69E-15-1.00E-01-1.00E-01-1.00E-01
  -0.1250 -0.3750  0.1250    1  1.51679E-15 kpt; spin; max resid(k); each band:
 9.90E-16 1.52E-15-1.00E-01-1.00E-01-1.00E-01
  -0.3750 -0.2500  0.0000    1  1.40905E-15 kpt; spin; max resid(k); each band:
 1.04E-15 1.41E-15-1.00E-01-1.00E-01-1.00E-01
  -0.2500 -0.2500  0.1250    1  9.84450E-16 kpt; spin; max resid(k); each band:
 9.84E-16 7.11E-16-1.00E-01-1.00E-01-1.00E-01
  -0.1250 -0.2500  0.2500    1  7.62841E-16 kpt; spin; max resid(k); each band:
 7.63E-16 4.60E-16-1.00E-01-1.00E-01-1.00E-01
   0.5000 -0.1250  0.0000    1  1.21758E-15 kpt; spin; max resid(k); each band:
 8.97E-16 1.22E-15-1.00E-01-1.00E-01-1.00E-01
  -0.3750 -0.1250  0.1250    1  1.08131E-15 kpt; spin; max resid(k); each band:
 7.27E-16 1.08E-15-1.00E-01-1.00E-01-1.00E-01
  -0.2500 -0.1250  0.2500    1  7.20174E-16 kpt; spin; max resid(k); each band:
 7.20E-16 4.91E-16-1.00E-01-1.00E-01-1.00E-01
  -0.1250 -0.1250  0.3750    1  1.21372E-15 kpt; spin; max resid(k); each band:
 5.87E-16 1.21E-15-1.00E-01-1.00E-01-1.00E-01
  -0.1250  0.2500  0.0000    1  2.20038E-15 kpt; spin; max resid(k); each band:
 2.20E-15 4.75E-16-1.00E-01-1.00E-01-1.00E-01
  -0.2500  0.3750  0.0000    1  1.54509E-15 kpt; spin; max resid(k); each band:
 1.47E-15 1.55E-15-1.00E-01-1.00E-01-1.00E-01
  -0.1250  0.3750  0.1250    1  1.27242E-15 kpt; spin; max resid(k); each band:
 1.27E-15 1.19E-15-1.00E-01-1.00E-01-1.00E-01
  -0.3750  0.5000  0.0000    1  1.41277E-15 kpt; spin; max resid(k); each band:
 8.25E-16 1.41E-15-1.00E-01-1.00E-01-1.00E-01
  -0.2500  0.5000  0.1250    1  1.45531E-15 kpt; spin; max resid(k); each band:
 8.19E-16 1.46E-15-1.00E-01-1.00E-01-1.00E-01
  -0.1250  0.5000  0.2500    1  1.09009E-15 kpt; spin; max resid(k); each band:
 1.03E-15 1.09E-15-1.00E-01-1.00E-01-1.00E-01
   0.5000 -0.3750  0.0000    1  8.69087E-16 kpt; spin; max resid(k); each band:
 8.69E-16 2.62E-16-1.00E-01-1.00E-01-1.00E-01
  -0.3750 -0.3750  0.1250    1  1.29412E-15 kpt; spin; max resid(k); each band:
 8.83E-16 1.29E-15-1.00E-01-1.00E-01-1.00E-01
  -0.2500 -0.3750  0.2500    1  8.16238E-16 kpt; spin; max resid(k); each band:
 8.16E-16 5.79E-16-1.00E-01-1.00E-01-1.00E-01
  -0.1250 -0.3750  0.3750    1  1.44593E-15 kpt; spin; max resid(k); each band:
 8.88E-16 1.45E-15-1.00E-01-1.00E-01-1.00E-01
   0.3750 -0.2500  0.0000    1  1.82921E-15 kpt; spin; max resid(k); each band:
 1.83E-15 1.41E-15-1.00E-01-1.00E-01-1.00E-01
   0.5000 -0.2500  0.1250    1  8.90127E-16 kpt; spin; max resid(k); each band:
 7.40E-16 8.90E-16-1.00E-01-1.00E-01-1.00E-01
  -0.3750 -0.2500  0.2500    1  1.00861E-15 kpt; spin; max resid(k); each band:
 1.01E-15 5.45E-16-1.00E-01-1.00E-01-1.00E-01
  -0.2500 -0.2500  0.3750    1  1.46099E-15 kpt; spin; max resid(k); each band:
 1.46E-15 1.06E-15-1.00E-01-1.00E-01-1.00E-01
  -0.1250 -0.2500  0.5000    1  1.30851E-15 kpt; spin; max resid(k); each band:
 1.29E-15 1.31E-15-1.00E-01-1.00E-01-1.00E-01
   0.2500 -0.1250  0.0000    1  1.22978E-15 kpt; spin; max resid(k); each band:
 1.15E-15 1.23E-15-1.00E-01-1.00E-01-1.00E-01
   0.3750 -0.1250  0.1250    1  1.26811E-15 kpt; spin; max resid(k); each band:
 1.08E-15 1.27E-15-1.00E-01-1.00E-01-1.00E-01
   0.5000 -0.1250  0.2500    1  8.25640E-16 kpt; spin; max resid(k); each band:
 8.26E-16 7.63E-16-1.00E-01-1.00E-01-1.00E-01
  -0.3750 -0.1250  0.3750    1  1.47107E-15 kpt; spin; max resid(k); each band:
 5.72E-16 1.47E-15-1.00E-01-1.00E-01-1.00E-01
  -0.2500 -0.1250  0.5000    1  1.75320E-15 kpt; spin; max resid(k); each band:
 1.75E-15 1.12E-15-1.00E-01-1.00E-01-1.00E-01
  -0.1250 -0.1250 -0.3750    1  1.91215E-15 kpt; spin; max resid(k); each band:
 1.91E-15 1.70E-15-1.00E-01-1.00E-01-1.00E-01
  -0.1250  0.0000  0.0000    1  2.02831E-15 kpt; spin; max resid(k); each band:
 2.03E-15 6.22E-16-1.00E-01-1.00E-01-1.00E-01
  -0.1250  0.1250  0.1250    1  2.84259E-15 kpt; spin; max resid(k); each band:
 1.03E-15 2.84E-15-1.00E-01-1.00E-01-1.00E-01
  -0.1250  0.2500  0.2500    1  2.07836E-15 kpt; spin; max resid(k); each band:
 5.40E-16 2.08E-15-1.00E-01-1.00E-01-1.00E-01
  -0.1250  0.3750  0.3750    1  8.02408E-16 kpt; spin; max resid(k); each band:
 6.35E-16 8.02E-16-1.00E-01-1.00E-01-1.00E-01
  -0.1250  0.5000  0.5000    1  6.91475E-16 kpt; spin; max resid(k); each band:
 6.91E-16 1.90E-16-1.00E-01-1.00E-01-1.00E-01
  -0.1250 -0.3750 -0.3750    1  1.02987E-15 kpt; spin; max resid(k); each band:
 1.03E-15 9.61E-16-1.00E-01-1.00E-01-1.00E-01
  -0.1250 -0.2500 -0.2500    1  1.85287E-15 kpt; spin; max resid(k); each band:
 1.85E-15 1.62E-15-1.00E-01-1.00E-01-1.00E-01
   0.0000 -0.1250  0.0000    1  3.73557E-15 kpt; spin; max resid(k); each band:
 2.31E-15 3.74E-15-1.00E-01-1.00E-01-1.00E-01
   0.1250 -0.1250  0.1250    1  1.76349E-15 kpt; spin; max resid(k); each band:
 1.76E-15 1.64E-15-1.00E-01-1.00E-01-1.00E-01
   0.2500 -0.1250  0.2500    1  9.31223E-16 kpt; spin; max resid(k); each band:
 7.48E-16 9.31E-16-1.00E-01-1.00E-01-1.00E-01
   0.3750 -0.1250  0.3750    1  1.08907E-15 kpt; spin; max resid(k); each band:
 6.12E-16 1.09E-15-1.00E-01-1.00E-01-1.00E-01
   0.5000 -0.1250  0.5000    1  1.12027E-15 kpt; spin; max resid(k); each band:
 1.12E-15 9.01E-16-1.00E-01-1.00E-01-1.00E-01
  -0.3750 -0.1250 -0.3750    1  2.10036E-15 kpt; spin; max resid(k); each band:
 2.10E-15 1.32E-15-1.00E-01-1.00E-01-1.00E-01
  -0.2500 -0.1250 -0.2500    1  2.86011E-15 kpt; spin; max resid(k); each band:
 2.74E-15 2.86E-15-1.00E-01-1.00E-01-1.00E-01
  -0.1250 -0.1250 -0.1250    1  2.30462E-15 kpt; spin; max resid(k); each band:
 2.30E-15 7.51E-16-1.00E-01-1.00E-01-1.00E-01
  -0.3750  0.0000  0.0000    1  1.89797E-15 kpt; spin; max resid(k); each band:
 1.29E-15 1.90E-15-1.00E-01-1.00E-01-1.00E-01
 outwf : prtvol=0 or 1, do not print more k-points.


 Thirteen components of 2nd-order total energy (hartree) are
 1,2,3: 0th-order hamiltonian combined with 1st-order wavefunctions
     kin0=   1.42495354E+01 eigvalue=  -1.02565545E+00  local=  -1.11589463E+01
 4,5,6: 1st-order hamiltonian combined with 1st and 0th-order wfs
 loc psp =   2.09245970E+01  Hartree=   2.40309972E+00     xc=  -9.22341306E-01
 note that "loc psp" includes a xc core correction that could be resolved
 7,8,9: eventually, occupation + non-local contributions
    edocc=   9.26810802E-01     enl0=   8.23497305E+00   enl1=  -4.63395490E+01
 1-9 gives the relaxation energy (to be shifted if some occ is /=2.0)
   erelax=  -1.27074761E+01
 10,11,12 Non-relaxation  contributions : frozen-wavefunctions and Ewald
 fr.local=  -1.52800178E+01 fr.nonlo=   2.52291526E+01  Ewald=   3.47959877E+00
 13,14 Frozen wf xc core corrections (1) and (2)
 frxc 1  =   0.00000000E+00  frxc 2 =   0.00000000E+00
 Resulting in :
 2DEtotal=    0.7212574284E+00 Ha. Also 2DEtotal=    0.196264127448E+02 eV
    (2DErelax=   -1.2707476139E+01 Ha. 2DEnonrelax=    1.3428733567E+01 Ha)
    (  non-var. 2DEtotal :    7.2125756715E-01 Ha)

================================================================================

 ---- first-order wavefunction calculations are completed ----


 ==> Compute Derivative Database <==
  
  2nd-order matrix (non-cartesian coordinates, masses not included,
   asr not included )
     j1       j2             matrix element
  dir pert dir pert     real part     imaginary part
  
   1    1   1    1         1.1640872827         0.0000000000
   1    1   2    1         0.1078243740         0.0000000000
   1    1   3    1         0.5557381505         0.0000000000
  
   2    1   1    1         0.1078246868         0.0000000000
   2    1   2    1         0.7738688759         0.0000000000
   2    1   3    1         0.1655194165         0.0000000000
  
   3    1   1    1         0.5557380841         0.0000000000
   3    1   2    1         0.1655192769         0.0000000000
   3    1   3    1         0.7212575671         0.0000000000
  
  
  Dynamical matrix, in cartesian coordinates,
   if specified in the inputs, asr has been imposed
     j1       j2             matrix element
  dir pert dir pert     real part    imaginary part
  
   1    1   1    1         0.0290992540         0.0000000000
   1    1   2    1        -0.0175150727         0.0000000000
   1    1   3    1         0.0000000076         0.0000000000
  
   2    1   1    1        -0.0175150752         0.0000000000
   2    1   2    1         0.0564094336         0.0000000000
   2    1   3    1        -0.0000000148         0.0000000000
  
   3    1   1    1         0.0000000015         0.0000000000
   3    1   2    1        -0.0000000015         0.0000000000
   3    1   3    1         0.0250613760         0.0000000000
 
  Phonon wavevector (reduced coordinates) :  0.25000 -0.12500  0.12500
 Phonon energies in Hartree :
   6.465719E-04  7.141056E-04  1.149725E-03
 Phonon energies in meV     :
-  1.759412E+01  1.943180E+01  3.128562E+01
 Phonon frequencies in cm-1    :
-  1.419061E+02  1.567281E+02  2.523356E+02
 Phonon frequencies in Thz     :
-  4.254239E+00  4.698589E+00  7.564830E+00
 Phonon energies in Kelvin  :
-  2.041710E+02  2.254965E+02  3.630542E+02

== END DATASET(S) ==============================================================
================================================================================
  
 -outvars: echo values of variables after computation  --------
     acell    7.5600000000E+00  7.5600000000E+00  7.5600000000E+00 Bohr
       amu    2.69600000E+01
    densty    1.20000000E+00
      ecut    1.00000000E+01 Hartree
    enunit         2
    etotal    7.2125742835E-01
     fcart    0.0000000000E+00  0.0000000000E+00  0.0000000000E+00
    irdwfk         1
    irdwfq         1
      iscf         5
    istatr      1000
       kpt   -1.25000000E-01 -2.50000000E-01  0.00000000E+00
             -2.50000000E-01 -1.25000000E-01  0.00000000E+00
             -1.25000000E-01 -1.25000000E-01  1.25000000E-01
             -1.25000000E-01  5.00000000E-01  0.00000000E+00
             -2.50000000E-01 -3.75000000E-01  0.00000000E+00
             -1.25000000E-01 -3.75000000E-01  1.25000000E-01
             -3.75000000E-01 -2.50000000E-01  0.00000000E+00
             -2.50000000E-01 -2.50000000E-01  1.25000000E-01
             -1.25000000E-01 -2.50000000E-01  2.50000000E-01
              5.00000000E-01 -1.25000000E-01  0.00000000E+00
             -3.75000000E-01 -1.25000000E-01  1.25000000E-01
             -2.50000000E-01 -1.25000000E-01  2.50000000E-01
             -1.25000000E-01 -1.25000000E-01  3.75000000E-01
             -1.25000000E-01  2.50000000E-01  0.00000000E+00
             -2.50000000E-01  3.75000000E-01  0.00000000E+00
             -1.25000000E-01  3.75000000E-01  1.25000000E-01
             -3.75000000E-01  5.00000000E-01  0.00000000E+00
             -2.50000000E-01  5.00000000E-01  1.25000000E-01
             -1.25000000E-01  5.00000000E-01  2.50000000E-01
              5.00000000E-01 -3.75000000E-01  0.00000000E+00
             -3.75000000E-01 -3.75000000E-01  1.25000000E-01
             -2.50000000E-01 -3.75000000E-01  2.50000000E-01
             -1.25000000E-01 -3.75000000E-01  3.75000000E-01
              3.75000000E-01 -2.50000000E-01  0.00000000E+00
              5.00000000E-01 -2.50000000E-01  1.25000000E-01
             -3.75000000E-01 -2.50000000E-01  2.50000000E-01
             -2.50000000E-01 -2.50000000E-01  3.75000000E-01
             -1.25000000E-01 -2.50000000E-01  5.00000000E-01
              2.50000000E-01 -1.25000000E-01  0.00000000E+00
              3.75000000E-01 -1.25000000E-01  1.25000000E-01
              5.00000000E-01 -1.25000000E-01  2.50000000E-01
             -3.75000000E-01 -1.25000000E-01  3.75000000E-01
             -2.50000000E-01 -1.25000000E-01  5.00000000E-01
             -1.25000000E-01 -1.25000000E-01 -3.75000000E-01
             -1.25000000E-01  0.00000000E+00  0.00000000E+00
             -2.50000000E-01  1.25000000E-01  0.00000000E+00
             -1.25000000E-01  1.25000000E-01  1.25000000E-01
             -3.75000000E-01  2.50000000E-01  0.00000000E+00
             -2.50000000E-01  2.50000000E-01  1.25000000E-01
             -1.25000000E-01  2.50000000E-01  2.50000000E-01
              5.00000000E-01  3.75000000E-01  0.00000000E+00
             -3.75000000E-01  3.75000000E-01  1.25000000E-01
             -2.50000000E-01  3.75000000E-01  2.50000000E-01
             -1.25000000E-01  3.75000000E-01  3.75000000E-01
              3.75000000E-01  5.00000000E-01  0.00000000E+00
              5.00000000E-01  5.00000000E-01  1.25000000E-01
             -3.75000000E-01  5.00000000E-01  2.50000000E-01
             -2.50000000E-01  5.00000000E-01  3.75000000E-01
             -1.25000000E-01  5.00000000E-01  5.00000000E-01
              2.50000000E-01 -3.75000000E-01  0.00000000E+00
                       outvar1 : prtvol=0, do not print more k-points.
   kptrlen    3.02400000E+01
    kptopt         3
  kptrlatt    4 -4  4  -4  4  4  -4 -4  4
P    mkmem        26
P   mkqmem        26
P   mk1mem        26
     natom         1
     nband         5
    nbdbuf         3
     ngfft        16      16      16
      nkpt       256
      nqpt         1
     nstep        20
      nsym        48
    ntypat         1
       occ    2.000000  0.000000  0.000000  0.000000  0.000000
              2.000000  0.000000  0.000000  0.000000  0.000000
              2.000000  0.000000  0.000000  0.000000  0.000000
              2.000000  2.001115  0.000000  0.000000  0.000000
              2.000000  0.000151  0.000000  0.000000  0.000000
              2.000000  0.700600  0.000000  0.000000  0.000000
              2.000000  0.000151  0.000000  0.000000  0.000000
              2.000000  0.000151  0.000000  0.000000  0.000000
              2.000000  0.700600  0.000000  0.000000  0.000000
              2.000000  2.001115  0.000000  0.000000  0.000000
              2.000000  0.700600  0.000000  0.000000  0.000000
              2.000000  0.700600  0.000000  0.000000  0.000000
              2.000000  2.001115  0.000000  0.000000  0.000000
              2.000000  0.003944  0.000000  0.000000  0.000000
              2.000002  2.048279  0.002016  0.000000  0.000000
              2.000000  0.700600  0.000000  0.000000  0.000000
              2.000001  0.370164  0.004127  0.000000  0.000000
              2.000753  2.076148  0.000913  0.000023  0.000000
              2.000753  2.076148  0.000913  0.000023  0.000000
              2.000001  0.370164  0.004127  0.000000  0.000000
              2.000001  0.370164  0.004127  0.000000  0.000000
              2.000753  2.076148  0.000913  0.000023  0.000000
              2.000753  2.076148  0.000913  0.000023  0.000000
              2.000002  2.048279  0.002016  0.000000  0.000000
              2.000753  2.076148  0.000913  0.000023  0.000000
              2.000753  2.076148  0.000913  0.000023  0.000000
              2.000002  2.048279  0.002016  0.000000  0.000000
              2.000000  0.700600  0.000000  0.000000  0.000000
              2.000000  0.003944  0.000000  0.000000  0.000000
              2.000000  0.700600  0.000000  0.000000  0.000000
              2.000753  2.076148  0.000913  0.000023  0.000000
              2.000753  2.076148  0.000913  0.000023  0.000000
              2.000000  0.700600  0.000000  0.000000  0.000000
              2.000000  0.003944  0.000000  0.000000  0.000000
              2.000000  0.000000  0.000000  0.000000  0.000000
              2.000000  0.003944  0.000000  0.000000  0.000000
              2.000000  0.000000  0.000000  0.000000  0.000000
              2.000002  2.048279  0.002016  0.000000  0.000000
              2.000000  0.700600  0.000000  0.000000  0.000000
              2.000000  0.000151  0.000000  0.000000  0.000000
              2.000001  0.370164  0.004127  0.000000  0.000000
              2.000753  2.076148  0.000913  0.000023  0.000000
              2.000753  2.076148  0.000913  0.000023  0.000000
              2.000001  0.370164  0.004127  0.000000  0.000000
              2.000001  0.370164  0.004127  0.000000  0.000000
              2.000001  0.370164  0.004127  0.000000  0.000000
              2.000753  2.076148  0.000913  0.000023  0.000000
              2.000753  2.076148  0.000913  0.000023  0.000000
              2.000001  0.370164  0.004127  0.000000  0.000000
              2.000002  2.048279  0.002016  0.000000  0.000000
                prtocc : prtvol=0, do not print more k-points.
    occopt         4
 optdriver         1
       qpt    2.50000000E-01 -1.25000000E-01  1.25000000E-01
     rfdir         1       1       1
    rfphon         1
     rprim    0.0000000000E+00  5.0000000000E-01  5.0000000000E-01
              5.0000000000E-01  0.0000000000E+00  5.0000000000E-01
              5.0000000000E-01  5.0000000000E-01  0.0000000000E+00
    shiftk    5.00000000E-01  5.00000000E-01  5.00000000E-01
   spgroup       225
    strten    0.0000000000E+00  0.0000000000E+00  0.0000000000E+00
              0.0000000000E+00  0.0000000000E+00  0.0000000000E+00
    symrel    1  0  0   0  1  0   0  0  1      -1  0  0   0 -1  0   0  0 -1
              0 -1  1   0 -1  0   1 -1  0       0  1 -1   0  1  0  -1  1  0
             -1  0  0  -1  0  1  -1  1  0       1  0  0   1  0 -1   1 -1  0
              0  1 -1   1  0 -1   0  0 -1       0 -1  1  -1  0  1   0  0  1
             -1  0  0  -1  1  0  -1  0  1       1  0  0   1 -1  0   1  0 -1
              0 -1  1   1 -1  0   0 -1  0       0  1 -1  -1  1  0   0  1  0
              1  0  0   0  0  1   0  1  0      -1  0  0   0  0 -1   0 -1  0
              0  1 -1   0  0 -1   1  0 -1       0 -1  1   0  0  1  -1  0  1
             -1  0  1  -1  1  0  -1  0  0       1  0 -1   1 -1  0   1  0  0
              0 -1  0   1 -1  0   0 -1  1       0  1  0  -1  1  0   0  1 -1
              1  0 -1   0  0 -1   0  1 -1      -1  0  1   0  0  1   0 -1  1
              0  1  0   0  0  1   1  0  0       0 -1  0   0  0 -1  -1  0  0
              1  0 -1   0  1 -1   0  0 -1      -1  0  1   0 -1  1   0  0  1
              0 -1  0   0 -1  1   1 -1  0       0  1  0   0  1 -1  -1  1  0
             -1  0  1  -1  0  0  -1  1  0       1  0 -1   1  0  0   1 -1  0
              0  1  0   1  0  0   0  0  1       0 -1  0  -1  0  0   0  0 -1
              0  0 -1   0  1 -1   1  0 -1       0  0  1   0 -1  1  -1  0  1
              1 -1  0   0 -1  1   0 -1  0      -1  1  0   0  1 -1   0  1  0
              0  0  1   1  0  0   0  1  0       0  0 -1  -1  0  0   0 -1  0
             -1  1  0  -1  0  0  -1  0  1       1 -1  0   1  0  0   1  0 -1
              0  0  1   0  1  0   1  0  0       0  0 -1   0 -1  0  -1  0  0
              1 -1  0   0 -1  0   0 -1  1      -1  1  0   0  1  0   0  1 -1
              0  0 -1   1  0 -1   0  1 -1       0  0  1  -1  0  1   0 -1  1
             -1  1  0  -1  0  1  -1  0  0       1 -1  0   1  0 -1   1  0  0
    timopt         2
    tolvrs    1.00000000E-10
     typat    1
       wtk      0.00391    0.00391    0.00391    0.00391    0.00391    0.00391
                0.00391    0.00391    0.00391    0.00391    0.00391    0.00391
                0.00391    0.00391    0.00391    0.00391    0.00391    0.00391
                0.00391    0.00391    0.00391    0.00391    0.00391    0.00391
                0.00391    0.00391    0.00391    0.00391    0.00391    0.00391
                0.00391    0.00391    0.00391    0.00391    0.00391    0.00391
                0.00391    0.00391    0.00391    0.00391    0.00391    0.00391
                0.00391    0.00391    0.00391    0.00391    0.00391    0.00391
                0.00391    0.00391
                outvar1 : prtvol=0, do not print more k-points.
     znucl     13.00000

================================================================================

- Total cpu        time (s,m,h):        140.9        2.35      0.039
- Total wall clock time (s,m,h):        140.9        2.35      0.039
-
- For major independent code sections, cpu and wall times (sec),
-  as well as % of the time and number of calls for node 0
-
- routine                cpu     %       wall     %      number of calls 
- vtorho3:synchro        3.454   2.5      3.453   2.5             31
- fourwf(pot)            2.353   1.7      2.298   1.6           8771
- status                 1.528   1.1      1.534   1.1          15135
- vtorho3-kpt loop       1.472   1.0      1.485   1.1             31
- vtorho3:MPI            1.249   0.9      1.249   0.9             31
- fourwf(G->r)           0.943   0.7      0.948   0.7           5220
- 60   others            3.152   2.2      3.202   2.3
-
- subtotal              14.152  10.0     14.169  10.1

- For major independent code sections, cpu and wall times (sec),
- as well as % of the total time and number of calls 

- routine                 cpu     %       wall     %      number of calls 
-                                                          (-1=no count)
- vtorho3:synchro       28.432  20.2     28.430  20.2            310
- fourwf(pot)           21.708  15.4     21.639  15.4          87107
- vtorho3-kpt loop      14.020   9.9     14.062  10.0            310
- vtorho3:MPI           13.722   9.7     13.721   9.7            310
- status                13.486   9.6     13.488   9.6         153024
- fourwf(G->r)           7.760   5.5      7.850   5.6          52416
- inwffil                4.479   3.2      4.489   3.2            100
- cgwf3-O(npw)           3.206   2.3      3.315   2.4            -10
- vtowfk3 (3)            2.809   2.0      2.800   2.0           6904
- vtowfk3(contrib)       2.468   1.8      2.383   1.7            -10
- abinit(2)              2.408   1.7      2.408   1.7             10
- projbd                 2.338   1.7      2.302   1.6         165062
- nonlop(apply)          2.184   1.5      2.190   1.6          53827
- nonlop(forces)         2.137   1.5      2.186   1.6          42880
- vtowfk3 (1)            1.919   1.4      1.924   1.4           6904
- getghc-other           1.278   0.9      1.186   0.8            -10
- invars2                1.239   0.9      1.239   0.9             10
- 49   others            2.965   2.1      2.996   2.1

- subtotal             128.557  91.2    128.608  91.3
-
- Proc.   0 individual time (sec): cpu=         14.1  wall=         14.1

================================================================================

 Calculation completed.
.Delivered    0 WARNINGs and   1 COMMENTs to log file.
+Overall time at end (sec) : cpu=        141.1  wall=        141.1
