
.Version 5.6.3  of ABINIT 
.(sequential version, prepared for a x86_64_linux_gcc4.3 computer) 

.Copyright (C) 1998-2008 ABINIT group . 
 ABINIT comes with ABSOLUTELY NO WARRANTY.
 It is free software, and you are welcome to redistribute it
 under certain conditions (GNU General Public License,
 see ~abinit/COPYING or http://www.gnu.org/copyleft/gpl.txt).

 ABINIT is a project of the Universite Catholique de Louvain,
 Corning Inc. and other collaborators, see ~abinit/doc/developers/contributors.txt .
 Please read ~abinit/doc/users/acknowledgments.html for suggested
 acknowledgments of the ABINIT effort.
 For more information, see http://www.abinit.org .

.Starting date : Thu  6 Nov 2008.
  
- input  file    -> /home/gonze/ABINIT/ABINITv5.6.3/test_gcc43/5.6.3-private/tests/v3/Input/t51.in
- output file    -> t51.out
- root for input  files -> t51i
- root for output files -> t51o


 DATASET    1 : space group Im -3 m (#229); Bravais cI (body-center cubic)
================================================================================
 Values of the parameters that define the memory need for DATASET  1.
   intxc =         0  ionmov =         0    iscf =         5 xclevel =         2
  lmnmax =         2   lnmax =         2   mband =         6  mffmem =         1
P  mgfft =        18   mkmem =         8 mpssoang=         3     mpw =       298
  mqgrid =      3001   natom =         1    nfft =      5832    nkpt =         8
  nloalg =         4  nspden =         2 nspinor =         1  nsppol =         2
    nsym =        48  n1xccc =      2501  ntypat =         1  occopt =         3
================================================================================
P This job should need less than                       4.326 Mbytes of memory.
  Rough estimation (10% accuracy) of disk space for files :
  WF disk file :      0.439 Mbytes ; DEN or POT disk file :      0.091 Mbytes.
================================================================================

 -outvars: echo values of preprocessed input variables --------
     acell    5.4235000000E+00  5.4235000000E+00  5.4235000000E+00 Bohr
       amu    5.58470000E+01
    diemac    1.00000000E+00
    diemix    5.00000000E-01
      ecut    1.80000000E+01 Hartree
    fixmom    5.00000000E-01
    getwfk        -1
      iscf         5
       ixc        11
    jdtset      1
       kpt   -6.25000000E-02 -6.25000000E-02  1.87500000E-01
             -6.25000000E-02 -6.25000000E-02  4.37500000E-01
             -1.87500000E-01 -1.87500000E-01  6.25000000E-02
             -1.87500000E-01 -1.87500000E-01 -4.37500000E-01
             -6.25000000E-02 -3.12500000E-01 -3.12500000E-01
             -1.87500000E-01 -4.37500000E-01  6.25000000E-02
             -3.12500000E-01 -3.12500000E-01  1.87500000E-01
             -4.37500000E-01 -4.37500000E-01  3.12500000E-01
   kptrlen    2.16940000E+01
    kptopt         1
  kptrlatt    4  0  4   0  4  4  -4 -4  0
P    mkmem         8
     natom         1
     nband         6
    ndtset         1
     ngfft        18      18      18
      nkpt         8
    nspden         2
    nsppol         2
     nstep        15
      nsym        48
    ntypat         1
       occ    1.000000  1.000000  1.000000  1.000000  0.000000  0.000000
              1.000000  1.000000  1.000000  1.000000  0.000000  0.000000
              1.000000  1.000000  1.000000  1.000000  0.000000  0.000000
              1.000000  1.000000  1.000000  1.000000  0.000000  0.000000
              1.000000  1.000000  1.000000  1.000000  0.000000  0.000000
              1.000000  1.000000  1.000000  1.000000  0.000000  0.000000
              1.000000  1.000000  1.000000  1.000000  0.000000  0.000000
              1.000000  1.000000  1.000000  1.000000  0.000000  0.000000
              1.000000  1.000000  1.000000  1.000000  0.000000  0.000000
              1.000000  1.000000  1.000000  1.000000  0.000000  0.000000
              1.000000  1.000000  1.000000  1.000000  0.000000  0.000000
              1.000000  1.000000  1.000000  1.000000  0.000000  0.000000
              1.000000  1.000000  1.000000  1.000000  0.000000  0.000000
              1.000000  1.000000  1.000000  1.000000  0.000000  0.000000
              1.000000  1.000000  1.000000  1.000000  0.000000  0.000000
              1.000000  1.000000  1.000000  1.000000  0.000000  0.000000
    occopt         3
     rprim   -5.0000000000E-01  5.0000000000E-01  5.0000000000E-01
              5.0000000000E-01 -5.0000000000E-01  5.0000000000E-01
              5.0000000000E-01  5.0000000000E-01 -5.0000000000E-01
    shiftk    5.00000000E-01  5.00000000E-01 -5.00000000E-01
   spgroup       229
    spinat    0.0000000000E+00  0.0000000000E+00  3.0000000000E+00
    symrel    1  0  0   0  1  0   0  0  1      -1  0  0   0 -1  0   0  0 -1
             -1 -1 -1   0  0  1   0  1  0       1  1  1   0  0 -1   0 -1  0
              0  1  0   1  0  0  -1 -1 -1       0 -1  0  -1  0  0   1  1  1
              0  0  1  -1 -1 -1   1  0  0       0  0 -1   1  1  1  -1  0  0
              0  1  0   1  0  0   0  0  1       0 -1  0  -1  0  0   0  0 -1
             -1 -1 -1   0  0  1   1  0  0       1  1  1   0  0 -1  -1  0  0
              1  0  0   0  1  0  -1 -1 -1      -1  0  0   0 -1  0   1  1  1
              0  0  1  -1 -1 -1   0  1  0       0  0 -1   1  1  1   0 -1  0
             -1 -1 -1   1  0  0   0  0  1       1  1  1  -1  0  0   0  0 -1
              0  1  0   0  0  1   1  0  0       0 -1  0   0  0 -1  -1  0  0
              1  0  0  -1 -1 -1   0  1  0      -1  0  0   1  1  1   0 -1  0
              0  0  1   0  1  0  -1 -1 -1       0  0 -1   0 -1  0   1  1  1
              1  0  0  -1 -1 -1   0  0  1      -1  0  0   1  1  1   0  0 -1
              0  1  0   0  0  1  -1 -1 -1       0 -1  0   0  0 -1   1  1  1
             -1 -1 -1   1  0  0   0  1  0       1  1  1  -1  0  0   0 -1  0
              0  0  1   0  1  0   1  0  0       0  0 -1   0 -1  0  -1  0  0
              0  1  0  -1 -1 -1   0  0  1       0 -1  0   1  1  1   0  0 -1
              1  0  0   0  0  1  -1 -1 -1      -1  0  0   0  0 -1   1  1  1
             -1 -1 -1   0  1  0   1  0  0       1  1  1   0 -1  0  -1  0  0
              0  0  1   1  0  0   0  1  0       0  0 -1  -1  0  0   0 -1  0
             -1 -1 -1   0  1  0   0  0  1       1  1  1   0 -1  0   0  0 -1
              1  0  0   0  0  1   0  1  0      -1  0  0   0  0 -1   0 -1  0
              0  1  0  -1 -1 -1   1  0  0       0 -1  0   1  1  1  -1  0  0
              0  0  1   1  0  0  -1 -1 -1       0  0 -1  -1  0  0   1  1  1
    toldfe    1.00000000E-08 Hartree
    tsmear    7.30000000E-03 Hartree
     typat    1
       wtk      0.06250    0.18750    0.18750    0.06250    0.06250    0.18750
                0.18750    0.06250
     znucl     26.00000

================================================================================

 chkinp: Checking input parameters for consistency, jdtset= 1.

================================================================================
== DATASET  1 ==================================================================

 Real(R)+Recip(G) space primitive vectors, cartesian coordinates (Bohr,Bohr^-1):
 R(1)= -2.7117500  2.7117500  2.7117500  G(1)=  0.0000000  0.1843828  0.1843828
 R(2)=  2.7117500 -2.7117500  2.7117500  G(2)=  0.1843828  0.0000000  0.1843828
 R(3)=  2.7117500  2.7117500 -2.7117500  G(3)=  0.1843828  0.1843828  0.0000000
 Unit cell volume ucvol=  7.9764370E+01 bohr^3
 Angles (23,13,12)=  1.09471221E+02  1.09471221E+02  1.09471221E+02 degrees

 getcut: wavevector=  0.0000  0.0000  0.0000  ngfft=  18  18  18
         ecut(hartree)=     18.000   => boxcut(ratio)=   2.00660

--- Pseudopotential description ------------------------------------------------
- pspini: atom type   1  psp file is /home/gonze/ABINIT/ABINITv5.6.3/test_gcc43/5.6.3-private/tests/Psps_for_tests/26fe.pspnc
- pspatm: opening atomic psp file    /home/gonze/ABINIT/ABINITv5.6.3/test_gcc43/5.6.3-private/tests/Psps_for_tests/26fe.pspnc
  Troullier-Martins psp for element  Fe        Thu Oct 27 17:35:05 EDT 1994
  26.00000   8.00000    940714                znucl, zion, pspdat
    1    1    2    0      2001   0.00000      pspcod,pspxc,lmax,lloc,mmax,r2well
    0   4.333  10.868    0   2.2918558        l,e99.0,e99.9,nproj,rcpsp
   0.00000000   0.00000000   0.00000000   0.00000000     rms, ekb1, ekb2, epsatm
    1   1.213   4.197    1   2.8345121        l,e99.0,e99.9,nproj,rcpsp
   0.00000000   0.00000000   0.00000000   0.00000000     rms, ekb1, ekb2, epsatm
    2  18.664  23.972    1   2.2918558        l,e99.0,e99.9,nproj,rcpsp
   0.00000000   0.00000000   0.00000000   0.00000000     rms, ekb1, ekb2, epsatm
    1.56404770202776    2.06158206779471    6.88331421535388   rchrg,fchrg,qchrg
 pspatm: epsatm=   62.03296659
         --- l  ekb(1:nproj) -->
             1    1.561134
             2   -8.115829
 pspatm: atomic psp has been read  and splines computed

   4.96263733E+02                                ecore*ucvol(ha*bohr**3)
--------------------------------------------------------------------------------

P newkpt: treating      6 bands with npw=     297 for ikpt=   1
P newkpt: treating      6 bands with npw=     298 for ikpt=   2
P newkpt: treating      6 bands with npw=     290 for ikpt=   3
P newkpt: treating      6 bands with npw=     294 for ikpt=   4
P newkpt: treating      6 bands with npw=     297 for ikpt=   5
P newkpt: treating      6 bands with npw=     291 for ikpt=   6
P newkpt: treating      6 bands with npw=     289 for ikpt=   7
P newkpt: treating      6 bands with npw=     288 for ikpt=   8
P newkpt: treating      6 bands with npw=     297 for ikpt=   1
P newkpt: treating      6 bands with npw=     298 for ikpt=   2
P newkpt: treating      6 bands with npw=     290 for ikpt=   3
P newkpt: treating      6 bands with npw=     294 for ikpt=   4
P newkpt: treating      6 bands with npw=     297 for ikpt=   5
P newkpt: treating      6 bands with npw=     291 for ikpt=   6
P newkpt: treating      6 bands with npw=     289 for ikpt=   7
P newkpt: treating      6 bands with npw=     288 for ikpt=   8

 setup2: Arith. and geom. avg. npw (full set) are     292.500     292.477

================================================================================

     iter   Etot(hartree)     deltaE(h) residm    vres2   diffor   maxfor   magn
 ETOT  1  -23.647944662049    -2.36E+01 6.22E-01 2.19E+03 0.0E+00 0.00E+00 0.500
 ETOT  2  -24.820348297115    -1.17E+00 9.52E-03 2.37E+01 0.0E+00 0.00E+00 0.500
 ETOT  3  -24.825292940189    -4.94E-03 5.32E-04 5.99E+00 0.0E+00 0.00E+00 0.500
 ETOT  4  -24.824168109835     1.12E-03 3.99E-04 1.35E+01 0.0E+00 0.00E+00 0.500
 ETOT  5  -24.824323735289    -1.56E-04 1.61E-05 6.60E+00 0.0E+00 0.00E+00 0.500
 ETOT  6  -24.824024228260     3.00E-04 2.89E-04 3.84E+00 0.0E+00 0.00E+00 0.500
 ETOT  7  -24.826266904081    -2.24E-03 7.71E-05 1.32E-01 0.0E+00 0.00E+00 0.500
 ETOT  8  -24.826303355322    -3.65E-05 2.11E-06 2.12E-02 0.0E+00 0.00E+00 0.500
 ETOT  9  -24.826323321380    -2.00E-05 1.11E-06 5.63E-03 0.0E+00 0.00E+00 0.500
 ETOT 10  -24.826324113476    -7.92E-07 7.59E-08 5.64E-03 0.0E+00 0.00E+00 0.500
 ETOT 11  -24.826324541504    -4.28E-07 7.12E-08 9.45E-04 0.0E+00 0.00E+00 0.500
 ETOT 12  -24.826324959348    -4.18E-07 1.49E-08 3.25E-05 0.0E+00 0.00E+00 0.500
 ETOT 13  -24.826324962516    -3.17E-09 1.16E-09 6.25E-06 0.0E+00 0.00E+00 0.500
 ETOT 14  -24.826324964223    -1.71E-09 2.50E-10 2.59E-06 0.0E+00 0.00E+00 0.500

 At SCF step   14, etot is converged :
  for the second time, diff in etot=  1.707E-09 < toldfe=  1.000E-08

 Cartesian components of stress tensor (hartree/bohr^3)
  sigma(1 1)=  1.78338391E-02  sigma(3 2)=  0.00000000E+00
  sigma(2 2)=  1.78338391E-02  sigma(3 1)=  0.00000000E+00
  sigma(3 3)=  1.78338391E-02  sigma(2 1)=  0.00000000E+00

================================================================================

 ----iterations are completed or convergence reached----

 Mean square residual over all n,k,spin=   4.5049E-11; max=  2.4952E-10
  -0.0625 -0.0625  0.1875    1  4.08494E-12 kpt; spin; max resid(k); each band:
 1.76E-12 3.54E-12 3.57E-12 4.08E-12 2.48E-12 2.49E-12
  -0.0625 -0.0625  0.4375    1  1.18169E-10 kpt; spin; max resid(k); each band:
 1.04E-10 5.11E-12 1.18E-10 1.53E-11 2.61E-12 7.48E-11
  -0.1875 -0.1875  0.0625    1  6.13533E-11 kpt; spin; max resid(k); each band:
 5.14E-11 1.72E-11 1.30E-11 9.82E-12 6.14E-11 2.38E-11
  -0.1875 -0.1875 -0.4375    1  1.61806E-10 kpt; spin; max resid(k); each band:
 1.55E-10 1.38E-11 1.38E-11 3.40E-12 3.32E-12 1.62E-10
  -0.0625 -0.3125 -0.3125    1  2.06854E-10 kpt; spin; max resid(k); each band:
 2.06E-11 5.24E-11 2.07E-10 1.83E-11 2.05E-11 1.95E-10
  -0.1875 -0.4375  0.0625    1  2.49523E-10 kpt; spin; max resid(k); each band:
 4.95E-11 1.34E-11 2.50E-10 2.86E-11 9.11E-11 2.11E-10
  -0.3125 -0.3125  0.1875    1  2.28850E-10 kpt; spin; max resid(k); each band:
 2.29E-10 2.51E-11 3.20E-11 1.84E-11 3.42E-11 2.18E-10
  -0.4375 -0.4375  0.3125    1  1.35583E-10 kpt; spin; max resid(k); each band:
 1.10E-10 2.84E-11 3.37E-11 2.53E-11 2.40E-11 1.36E-10
  -0.0625 -0.0625  0.1875    2  2.98149E-12 kpt; spin; max resid(k); each band:
 1.38E-12 2.98E-12 2.98E-12 2.94E-12 1.32E-12 1.32E-12
  -0.0625 -0.0625  0.4375    2  5.95891E-11 kpt; spin; max resid(k); each band:
 4.83E-11 4.10E-12 5.96E-11 2.03E-11 1.41E-12 4.68E-11
  -0.1875 -0.1875  0.0625    2  2.27346E-11 kpt; spin; max resid(k); each band:
 1.30E-11 1.17E-11 2.27E-11 1.88E-11 1.68E-11 5.29E-12
  -0.1875 -0.1875 -0.4375    2  1.01594E-10 kpt; spin; max resid(k); each band:
 1.02E-10 1.34E-11 1.34E-11 5.95E-12 6.05E-12 1.02E-10
  -0.0625 -0.3125 -0.3125    2  1.16900E-10 kpt; spin; max resid(k); each band:
 1.24E-11 2.14E-11 1.05E-10 2.81E-11 2.04E-11 1.17E-10
  -0.1875 -0.4375  0.0625    2  8.87410E-11 kpt; spin; max resid(k); each band:
 2.04E-11 1.26E-11 4.47E-11 3.83E-11 4.78E-11 8.87E-11
  -0.3125 -0.3125  0.1875    2  5.37297E-11 kpt; spin; max resid(k); each band:
 3.78E-11 1.41E-11 2.57E-11 2.18E-11 2.90E-11 5.37E-11
  -0.4375 -0.4375  0.3125    2  3.30417E-11 kpt; spin; max resid(k); each band:
 1.30E-11 4.08E-12 3.10E-11 2.42E-11 2.02E-11 3.30E-11
 reduced coordinates (array xred) for    1 atoms
       0.000000000000      0.000000000000      0.000000000000
 rms dE/dt=  0.0000E+00; max dE/dt=  0.0000E+00; dE/dt below (all hartree)
    1       0.000000000000      0.000000000000      0.000000000000

 cartesian coordinates (angstrom) at end:
    1      0.00000000000000     0.00000000000000     0.00000000000000

 cartesian forces (hartree/bohr) at end:
    1     -0.00000000000000    -0.00000000000000    -0.00000000000000
 frms,max,avg= 0.0000000E+00 0.0000000E+00   0.000E+00  0.000E+00  0.000E+00 h/b

 cartesian forces (eV/Angstrom) at end:
    1     -0.00000000000000    -0.00000000000000    -0.00000000000000
 frms,max,avg= 0.0000000E+00 0.0000000E+00   0.000E+00  0.000E+00  0.000E+00 e/A
 length scales=  5.423500000000  5.423500000000  5.423500000000 bohr
              =  2.869992590788  2.869992590788  2.869992590788 angstroms
 prteigrs : about to open file t51o_DS1_EIG
 Fermi (or HOMO) energy (hartree) =  -0.25221   Average Vxc (hartree)=  -0.50057
 Magnetisation (Bohr magneton)=  5.00000000E-01
 Total spin up =  4.25000000E+00   Total spin down =  3.75000000E+00
 Eigenvalues (hartree) for nkpt=   8  k points, SPIN UP:
 kpt#   1, nband=  6, wtk=  0.06250, kpt= -0.0625 -0.0625  0.1875 (reduced coord)
  -0.54768  -0.33896  -0.33896  -0.30756  -0.26996  -0.26996
      occupation numbers for kpt#   1
   1.00000   0.99995   0.99995   0.99601   0.59137   0.59137
 kpt#   2, nband=  6, wtk=  0.18750, kpt= -0.0625 -0.0625  0.4375 (reduced coord)
  -0.43009  -0.36734  -0.32924  -0.28200  -0.27600  -0.21214
      occupation numbers for kpt#   2
   1.00000   1.00000   0.99979   0.88277   0.76797   0.00053
 kpt#   3, nband=  6, wtk=  0.18750, kpt= -0.1875 -0.1875  0.0625 (reduced coord)
  -0.47040  -0.33656  -0.33622  -0.29384  -0.26286  -0.25706
      occupation numbers for kpt#   3
   1.00000   0.99992   0.99992   0.97445   0.35380   0.19831
 kpt#   4, nband=  6, wtk=  0.06250, kpt= -0.1875 -0.1875 -0.4375 (reduced coord)
  -0.37160  -0.36868  -0.36868  -0.27417  -0.27417  -0.11835
      occupation numbers for kpt#   4
   1.00000   1.00000   1.00000   0.72042   0.72042   0.00000
 kpt#   5, nband=  6, wtk=  0.06250, kpt= -0.0625 -0.3125 -0.3125 (reduced coord)
  -0.38633  -0.35581  -0.35581  -0.27579  -0.27579   0.00314
      occupation numbers for kpt#   5
   1.00000   0.99999   0.99999   0.76290   0.76290   0.00000
 kpt#   6, nband=  6, wtk=  0.18750, kpt= -0.1875 -0.4375  0.0625 (reduced coord)
  -0.40493  -0.35970  -0.33875  -0.27926  -0.23350  -0.13875
      occupation numbers for kpt#   6
   1.00000   1.00000   0.99994   0.83813   0.00971   0.00000
 kpt#   7, nband=  6, wtk=  0.18750, kpt= -0.3125 -0.3125  0.1875 (reduced coord)
  -0.39772  -0.36925  -0.32149  -0.28627  -0.23629  -0.15837
      occupation numbers for kpt#   7
   1.00000   1.00000   0.99941   0.93113   0.01416   0.00000
 kpt#   8, nband=  6, wtk=  0.06250, kpt= -0.4375 -0.4375  0.3125 (reduced coord)
  -0.40158  -0.40158  -0.28671  -0.22864  -0.22864   0.05107
      occupation numbers for kpt#   8
   1.00000   1.00000   0.93491   0.00502   0.00502   0.00000
 Eigenvalues (hartree) for nkpt=   8  k points, SPIN DOWN:
 kpt#   1, nband=  6, wtk=  0.06250, kpt= -0.0625 -0.0625  0.1875 (reduced coord)
  -0.54786  -0.32677  -0.32677  -0.29479  -0.23469  -0.23469
      occupation numbers for kpt#   1
   1.00000   0.99996   0.99996   0.99708   0.08317   0.08317
 kpt#   2, nband=  6, wtk=  0.18750, kpt= -0.0625 -0.0625  0.4375 (reduced coord)
  -0.42349  -0.35602  -0.32047  -0.25259  -0.23992  -0.19944
      occupation numbers for kpt#   2
   1.00000   1.00000   0.99991   0.51309   0.15663   0.00073
 kpt#   3, nband=  6, wtk=  0.18750, kpt= -0.1875 -0.1875  0.0625 (reduced coord)
  -0.46905  -0.32508  -0.32145  -0.26470  -0.24735  -0.22432
      occupation numbers for kpt#   3
   1.00000   0.99995   0.99992   0.84698   0.33954   0.02146
 kpt#   4, nband=  6, wtk=  0.06250, kpt= -0.1875 -0.1875 -0.4375 (reduced coord)
  -0.36717  -0.35801  -0.35801  -0.23909  -0.23909  -0.10850
      occupation numbers for kpt#   4
   1.00000   1.00000   1.00000   0.14224   0.14224   0.00000
 kpt#   5, nband=  6, wtk=  0.06250, kpt= -0.0625 -0.3125 -0.3125 (reduced coord)
  -0.37652  -0.34447  -0.34447  -0.24439  -0.24439   0.01013
      occupation numbers for kpt#   5
   1.00000   1.00000   1.00000   0.25529   0.25529   0.00000
 kpt#   6, nband=  6, wtk=  0.18750, kpt= -0.1875 -0.4375  0.0625 (reduced coord)
  -0.39155  -0.34800  -0.32060  -0.25337  -0.21328  -0.12755
      occupation numbers for kpt#   6
   1.00000   1.00000   0.99991   0.53975   0.00481   0.00000
 kpt#   7, nband=  6, wtk=  0.18750, kpt= -0.3125 -0.3125  0.1875 (reduced coord)
  -0.38349  -0.34507  -0.30830  -0.27058  -0.21967  -0.14244
      occupation numbers for kpt#   7
   1.00000   1.00000   0.99954   0.92536   0.01146   0.00000
 kpt#   8, nband=  6, wtk=  0.06250, kpt= -0.4375 -0.4375  0.3125 (reduced coord)
  -0.37739  -0.37739  -0.27422  -0.21438  -0.21438   0.05612
      occupation numbers for kpt#   8
   1.00000   1.00000   0.95329   0.00558   0.00558   0.00000
 Total charge density [el/Bohr^3]
,     Maximum=    6.4132E-01  at reduced coord.    0.7778    0.8889    0.8889
,Next maximum=    6.4132E-01  at reduced coord.    0.8889    0.7778    0.8889
,     Minimum=    1.0274E-03  at reduced coord.    0.0000    0.0000    0.0000
,Next minimum=    3.3134E-02  at reduced coord.    0.5000    0.5000    0.0000
 Spin up density      [el/Bohr^3]
,     Maximum=    3.6989E-01  at reduced coord.    0.0000    0.8333    0.8333
,Next maximum=    3.6989E-01  at reduced coord.    0.8333    0.0000    0.8333
,     Minimum=    5.1429E-04  at reduced coord.    0.0000    0.0000    0.0000
,Next minimum=    1.6191E-02  at reduced coord.    0.5000    0.5000    0.0000
 Spin down density    [el/Bohr^3]
,     Maximum=    3.1337E-01  at reduced coord.    0.8333    0.8333    0.8333
,Next maximum=    3.1337E-01  at reduced coord.    0.0000    0.0000    0.8333
,     Minimum=    5.1313E-04  at reduced coord.    0.0000    0.0000    0.0000
,Next minimum=    1.6943E-02  at reduced coord.    0.5000    0.5000    0.0000
 Magnetization (spin up - spin down) [el/Bohr^3]
,     Maximum=    1.4193E-01  at reduced coord.    0.0000    0.8333    0.8333
,Next maximum=    1.4193E-01  at reduced coord.    0.8333    0.0000    0.8333
,     Minimum=   -1.2513E-03  at reduced coord.    0.7222    0.5000    0.2222
,Next minimum=   -1.2513E-03  at reduced coord.    0.5000    0.7222    0.2222
 Relative magnetization (=zeta, between -1 and 1)
,     Maximum=    2.3988E-01  at reduced coord.    0.0000    0.8889    0.8889
,Next maximum=    2.3988E-01  at reduced coord.    0.8889    0.0000    0.8889
,     Minimum=   -3.3886E-02  at reduced coord.    0.7222    0.4444    0.2222
,Next minimum=   -3.3886E-02  at reduced coord.    0.7778    0.5000    0.2222

--------------------------------------------------------------------------------
 Components of total free energy (in Hartree) :

    Kinetic energy  =  2.48222946919859E+01
    Hartree energy  =  2.56504618207709E+00
    XC energy       = -1.06249000074339E+01
    Ewald energy    = -2.14723832182677E+01
    PspCore energy  =  6.22162169019580E+00
    Loc. psp. energy=  2.10767100103750E+00
    NL   psp  energy= -2.84338717385273E+01
    >>>>> Internal E= -2.48145213989326E+01

    -kT*entropy     = -1.18035652902690E-02
    >>>>>>>>> Etotal= -2.48263249642229E+01

 Other information on the energy :
    Total energy(eV)= -6.75558658434569E+02 ; Band energy (Ha)=  -2.7480258121E+00
--------------------------------------------------------------------------------

 Cartesian components of stress tensor (hartree/bohr^3)
  sigma(1 1)=  1.78338391E-02  sigma(3 2)=  0.00000000E+00
  sigma(2 2)=  1.78338391E-02  sigma(3 1)=  0.00000000E+00
  sigma(3 3)=  1.78338391E-02  sigma(2 1)=  0.00000000E+00

-Cartesian components of stress tensor (GPa)         [Pressure= -5.2469E+02 GPa]
- sigma(1 1)=  5.24689572E+02  sigma(3 2)=  0.00000000E+00
- sigma(2 2)=  5.24689572E+02  sigma(3 1)=  0.00000000E+00
- sigma(3 3)=  5.24689572E+02  sigma(2 1)=  0.00000000E+00

== END DATASET(S) ==============================================================
================================================================================
  
 -outvars: echo values of variables after computation  --------
     acell    5.4235000000E+00  5.4235000000E+00  5.4235000000E+00 Bohr
       amu    5.58470000E+01
    diemac    1.00000000E+00
    diemix    5.00000000E-01
      ecut    1.80000000E+01 Hartree
    etotal1  -2.4826324964E+01
     fcart1  -0.0000000000E+00 -0.0000000000E+00 -0.0000000000E+00
    fixmom    5.00000000E-01
    getwfk        -1
      iscf         5
       ixc        11
    jdtset      1
       kpt   -6.25000000E-02 -6.25000000E-02  1.87500000E-01
             -6.25000000E-02 -6.25000000E-02  4.37500000E-01
             -1.87500000E-01 -1.87500000E-01  6.25000000E-02
             -1.87500000E-01 -1.87500000E-01 -4.37500000E-01
             -6.25000000E-02 -3.12500000E-01 -3.12500000E-01
             -1.87500000E-01 -4.37500000E-01  6.25000000E-02
             -3.12500000E-01 -3.12500000E-01  1.87500000E-01
             -4.37500000E-01 -4.37500000E-01  3.12500000E-01
   kptrlen    2.16940000E+01
    kptopt         1
  kptrlatt    4  0  4   0  4  4  -4 -4  0
P    mkmem         8
     natom         1
     nband         6
    ndtset         1
     ngfft        18      18      18
      nkpt         8
    nspden         2
    nsppol         2
     nstep        15
      nsym        48
    ntypat         1
       occ    1.000000  0.999946  0.999946  0.996013  0.591368  0.591368
              1.000000  0.999999  0.999794  0.882770  0.767974  0.000526
              1.000000  0.999925  0.999921  0.974451  0.353796  0.198305
              0.999999  0.999999  0.999999  0.720424  0.720424  0.000000
              1.000000  0.999995  0.999995  0.762899  0.762899  0.000000
              1.000000  0.999997  0.999944  0.838128  0.009705  0.000000
              1.000000  0.999999  0.999406  0.931127  0.014161  0.000000
              1.000000  1.000000  0.934906  0.005017  0.005017  0.000000
              1.000000  0.999963  0.999963  0.997079  0.083174  0.083174
              1.000000  0.999999  0.999913  0.513091  0.156630  0.000725
              1.000000  0.999954  0.999924  0.846977  0.339543  0.021463
              1.000000  0.999999  0.999999  0.142243  0.142243  0.000000
              1.000000  0.999997  0.999997  0.255288  0.255288  0.000000
              1.000000  0.999998  0.999915  0.539751  0.004808  0.000000
              1.000000  0.999997  0.999540  0.925356  0.011458  0.000000
              1.000000  1.000000  0.953294  0.005585  0.005585  0.000000
    occopt         3
     rprim   -5.0000000000E-01  5.0000000000E-01  5.0000000000E-01
              5.0000000000E-01 -5.0000000000E-01  5.0000000000E-01
              5.0000000000E-01  5.0000000000E-01 -5.0000000000E-01
    shiftk    5.00000000E-01  5.00000000E-01 -5.00000000E-01
   spgroup       229
    spinat    0.0000000000E+00  0.0000000000E+00  3.0000000000E+00
    strten1   1.7833839080E-02  1.7833839080E-02  1.7833839080E-02
              0.0000000000E+00  0.0000000000E+00  0.0000000000E+00
    symrel    1  0  0   0  1  0   0  0  1      -1  0  0   0 -1  0   0  0 -1
             -1 -1 -1   0  0  1   0  1  0       1  1  1   0  0 -1   0 -1  0
              0  1  0   1  0  0  -1 -1 -1       0 -1  0  -1  0  0   1  1  1
              0  0  1  -1 -1 -1   1  0  0       0  0 -1   1  1  1  -1  0  0
              0  1  0   1  0  0   0  0  1       0 -1  0  -1  0  0   0  0 -1
             -1 -1 -1   0  0  1   1  0  0       1  1  1   0  0 -1  -1  0  0
              1  0  0   0  1  0  -1 -1 -1      -1  0  0   0 -1  0   1  1  1
              0  0  1  -1 -1 -1   0  1  0       0  0 -1   1  1  1   0 -1  0
             -1 -1 -1   1  0  0   0  0  1       1  1  1  -1  0  0   0  0 -1
              0  1  0   0  0  1   1  0  0       0 -1  0   0  0 -1  -1  0  0
              1  0  0  -1 -1 -1   0  1  0      -1  0  0   1  1  1   0 -1  0
              0  0  1   0  1  0  -1 -1 -1       0  0 -1   0 -1  0   1  1  1
              1  0  0  -1 -1 -1   0  0  1      -1  0  0   1  1  1   0  0 -1
              0  1  0   0  0  1  -1 -1 -1       0 -1  0   0  0 -1   1  1  1
             -1 -1 -1   1  0  0   0  1  0       1  1  1  -1  0  0   0 -1  0
              0  0  1   0  1  0   1  0  0       0  0 -1   0 -1  0  -1  0  0
              0  1  0  -1 -1 -1   0  0  1       0 -1  0   1  1  1   0  0 -1
              1  0  0   0  0  1  -1 -1 -1      -1  0  0   0  0 -1   1  1  1
             -1 -1 -1   0  1  0   1  0  0       1  1  1   0 -1  0  -1  0  0
              0  0  1   1  0  0   0  1  0       0  0 -1  -1  0  0   0 -1  0
             -1 -1 -1   0  1  0   0  0  1       1  1  1   0 -1  0   0  0 -1
              1  0  0   0  0  1   0  1  0      -1  0  0   0  0 -1   0 -1  0
              0  1  0  -1 -1 -1   1  0  0       0 -1  0   1  1  1  -1  0  0
              0  0  1   1  0  0  -1 -1 -1       0  0 -1  -1  0  0   1  1  1
    toldfe    1.00000000E-08 Hartree
    tsmear    7.30000000E-03 Hartree
     typat    1
       wtk      0.06250    0.18750    0.18750    0.06250    0.06250    0.18750
                0.18750    0.06250
     znucl     26.00000

================================================================================

- Total cpu        time (s,m,h):          5.1        0.08      0.001
- Total wall clock time (s,m,h):          5.1        0.08      0.001

- For major independent code sections, cpu and wall times (sec),
- as well as % of the total time and number of calls 

- routine                 cpu     %       wall     %      number of calls 
-                                                          (-1=no count)
- fourwf(pot)            2.426  47.8      2.429  47.9           7570
- timing timab           0.498   9.8      0.498   9.8             12
- nonlop(apply)          0.273   5.4      0.296   5.8           7570
- pspini                 0.257   5.1      0.257   5.1              1
- fourwf(den)            0.226   4.5      0.223   4.4           1244
- projbd                 0.202   4.0      0.188   3.7          12068
- getghc-other           0.118   2.3      0.120   2.4             -1
- xc:pot/=fourdp         0.107   2.1      0.106   2.1             15
- vtowfk(ssdiag)         0.087   1.7      0.098   1.9             -1
- forces                 0.083   1.6      0.082   1.6             14
- invars2                0.077   1.5      0.078   1.5              1
- fourdp                 0.066   1.3      0.067   1.3            314
- vtorho(4)-mkrho-       0.064   1.3      0.065   1.3             28
- nonlop(forces)         0.059   1.2      0.056   1.1           1344
- vtowfk(contrib)        0.035   0.7      0.024   0.5            224
- symrhg(no FFT)         0.034   0.7      0.034   0.7             42
- status                 0.034   0.7      0.033   0.7           4033
- mkcore                 0.032   0.6      0.028   0.6             16
- vtorho-kpt loop        0.031   0.6      0.027   0.5             28
- 51   others            0.099   2.0      0.105   2.1

- subtotal               4.808  94.8      4.814  94.9

================================================================================

 Calculation completed.
.Delivered    9 WARNINGs and   0 COMMENTs to log file.
+Overall time at end (sec) : cpu=          5.1  wall=          5.1
