
.Version 5.6.3  of ABINIT 
.(sequential version, prepared for a x86_64_linux_gcc4.3 computer) 

.Copyright (C) 1998-2008 ABINIT group . 
 ABINIT comes with ABSOLUTELY NO WARRANTY.
 It is free software, and you are welcome to redistribute it
 under certain conditions (GNU General Public License,
 see ~abinit/COPYING or http://www.gnu.org/copyleft/gpl.txt).

 ABINIT is a project of the Universite Catholique de Louvain,
 Corning Inc. and other collaborators, see ~abinit/doc/developers/contributors.txt .
 Please read ~abinit/doc/users/acknowledgments.html for suggested
 acknowledgments of the ABINIT effort.
 For more information, see http://www.abinit.org .

.Starting date : Thu  6 Nov 2008.
  
- input  file    -> /home/gonze/ABINIT/ABINITv5.6.3/test_gcc43/5.6.3-private/tests/v3/Input/t56.in
- output file    -> t56.out
- root for input  files -> t56i
- root for output files -> t56o


 Symmetries : space group Fm -3 m (#225); Bravais cF (face-center cubic)
================================================================================
 Values of the parameters that define the memory need of the present run
   intxc =         0  ionmov =         0    iscf =         3 xclevel =         1
  lmnmax =         2   lnmax =         2   mband =         4  mffmem =         1
P  mgfft =        40   mkmem =         2 mpssoang=         3     mpw =      2843
  mqgrid =      3001   natom =         2    nfft =     64000    nkpt =         2
  nloalg =         4  nspden =         1 nspinor =         1  nsppol =         1
    nsym =        48  n1xccc =      2501  ntypat =         2  occopt =         1
================================================================================
P This job should need less than                      13.993 Mbytes of memory.
  Rough estimation (10% accuracy) of disk space for files :
  WF disk file :      0.349 Mbytes ; DEN or POT disk file :      0.490 Mbytes.
================================================================================

 -outvars: echo values of preprocessed input variables --------
     acell    7.4000000000E+00  7.4000000000E+00  7.4000000000E+00 Bohr
       amu    1.59994000E+01  2.43050000E+01
      ecut    7.00000000E+01 Hartree
      iscf         3
       kpt   -2.50000000E-01  5.00000000E-01  0.00000000E+00
             -2.50000000E-01  0.00000000E+00  0.00000000E+00
   kptrlen    1.48000000E+01
    kptopt         1
  kptrlatt    2 -2  2  -2  2  2  -2 -2  2
P    mkmem         2
     natom         2
     nband         4
     ngfft        40      40      40
      nkpt         2
     nstep        40
      nsym        48
    ntypat         2
       occ    2.000000  2.000000  2.000000  2.000000
     rprim    0.0000000000E+00  5.0000000000E-01  5.0000000000E-01
              5.0000000000E-01  0.0000000000E+00  5.0000000000E-01
              5.0000000000E-01  5.0000000000E-01  0.0000000000E+00
    shiftk    5.00000000E-01  5.00000000E-01  5.00000000E-01
   spgroup       225
    symrel    1  0  0   0  1  0   0  0  1      -1  0  0   0 -1  0   0  0 -1
              0 -1  1   0 -1  0   1 -1  0       0  1 -1   0  1  0  -1  1  0
             -1  0  0  -1  0  1  -1  1  0       1  0  0   1  0 -1   1 -1  0
              0  1 -1   1  0 -1   0  0 -1       0 -1  1  -1  0  1   0  0  1
             -1  0  0  -1  1  0  -1  0  1       1  0  0   1 -1  0   1  0 -1
              0 -1  1   1 -1  0   0 -1  0       0  1 -1  -1  1  0   0  1  0
              1  0  0   0  0  1   0  1  0      -1  0  0   0  0 -1   0 -1  0
              0  1 -1   0  0 -1   1  0 -1       0 -1  1   0  0  1  -1  0  1
             -1  0  1  -1  1  0  -1  0  0       1  0 -1   1 -1  0   1  0  0
              0 -1  0   1 -1  0   0 -1  1       0  1  0  -1  1  0   0  1 -1
              1  0 -1   0  0 -1   0  1 -1      -1  0  1   0  0  1   0 -1  1
              0  1  0   0  0  1   1  0  0       0 -1  0   0  0 -1  -1  0  0
              1  0 -1   0  1 -1   0  0 -1      -1  0  1   0 -1  1   0  0  1
              0 -1  0   0 -1  1   1 -1  0       0  1  0   0  1 -1  -1  1  0
             -1  0  1  -1  0  0  -1  1  0       1  0 -1   1  0  0   1 -1  0
              0  1  0   1  0  0   0  0  1       0 -1  0  -1  0  0   0  0 -1
              0  0 -1   0  1 -1   1  0 -1       0  0  1   0 -1  1  -1  0  1
              1 -1  0   0 -1  1   0 -1  0      -1  1  0   0  1 -1   0  1  0
              0  0  1   1  0  0   0  1  0       0  0 -1  -1  0  0   0 -1  0
             -1  1  0  -1  0  0  -1  0  1       1 -1  0   1  0  0   1  0 -1
              0  0  1   0  1  0   1  0  0       0  0 -1   0 -1  0  -1  0  0
              1 -1  0   0 -1  0   0 -1  1      -1  1  0   0  1  0   0  1 -1
              0  0 -1   1  0 -1   0  1 -1       0  0  1  -1  0  1   0 -1  1
             -1  1  0  -1  0  1  -1  0  0       1 -1  0   1  0 -1   1  0  0
    tolwfr    1.00000000E-12
     typat    1  2
       wtk      0.75000    0.25000
    xangst    0.0000000000E+00  0.0000000000E+00  0.0000000000E+00
              1.9579556718E+00  1.9579556718E+00  1.9579556718E+00
     xcart    0.0000000000E+00  0.0000000000E+00  0.0000000000E+00
              3.7000000000E+00  3.7000000000E+00  3.7000000000E+00
      xred    0.0000000000E+00  0.0000000000E+00  0.0000000000E+00
              5.0000000000E-01  5.0000000000E-01  5.0000000000E-01
     znucl      8.00000   12.00000

================================================================================

 chkinp: Checking input parameters for consistency.

================================================================================
== DATASET  1 ==================================================================

 Real(R)+Recip(G) space primitive vectors, cartesian coordinates (Bohr,Bohr^-1):
 R(1)=  0.0000000  3.7000000  3.7000000  G(1)= -0.1351351  0.1351351  0.1351351
 R(2)=  3.7000000  0.0000000  3.7000000  G(2)=  0.1351351 -0.1351351  0.1351351
 R(3)=  3.7000000  3.7000000  0.0000000  G(3)=  0.1351351  0.1351351 -0.1351351
 Unit cell volume ucvol=  1.0130600E+02 bohr^3
 Angles (23,13,12)=  6.00000000E+01  6.00000000E+01  6.00000000E+01 degrees

 getcut: wavevector=  0.0000  0.0000  0.0000  ngfft=  40  40  40
         ecut(hartree)=     70.000   => boxcut(ratio)=   2.02969

--- Pseudopotential description ------------------------------------------------
- pspini: atom type   1  psp file is /home/gonze/ABINIT/ABINITv5.6.3/test_gcc43/5.6.3-private/tests/Psps_for_tests/8o.pspnc
- pspatm: opening atomic psp file    /home/gonze/ABINIT/ABINITv5.6.3/test_gcc43/5.6.3-private/tests/Psps_for_tests/8o.pspnc
  Troullier-Martins psp for element  O         Thu Oct 27 17:29:57 EDT 1994
   8.00000   6.00000    940714                znucl, zion, pspdat
    1    1    1    1      2001   0.00000      pspcod,pspxc,lmax,lloc,mmax,r2well
    0   5.480  16.893    1   1.4482335        l,e99.0,e99.9,nproj,rcpsp
   0.00000000   0.00000000   0.00000000   0.00000000     rms, ekb1, ekb2, epsatm
    1  20.911  28.075    0   1.4482335        l,e99.0,e99.9,nproj,rcpsp
   0.00000000   0.00000000   0.00000000   0.00000000     rms, ekb1, ekb2, epsatm
    0.56990156784787    3.95561236318184    0.63894027514378   rchrg,fchrg,qchrg
 pspatm: epsatm=    1.57752239
         --- l  ekb(1:nproj) -->
             0    5.670783
 pspatm: atomic psp has been read  and splines computed

- pspini: atom type   2  psp file is /home/gonze/ABINIT/ABINITv5.6.3/test_gcc43/5.6.3-private/tests/Psps_for_tests/12mg.pspnc
- pspatm: opening atomic psp file    /home/gonze/ABINIT/ABINITv5.6.3/test_gcc43/5.6.3-private/tests/Psps_for_tests/12mg.pspnc
  Troullier-Martins psp for element  Mg        Thu Oct 27 17:30:49 EDT 1994
  12.00000   2.00000    940714                znucl, zion, pspdat
    1    1    2    2      2001   0.00000      pspcod,pspxc,lmax,lloc,mmax,r2well
    0   3.352   8.820    1   2.5922174        l,e99.0,e99.9,nproj,rcpsp
   0.00000000   0.00000000   0.00000000   0.00000000     rms, ekb1, ekb2, epsatm
    1   1.127   1.670    1   2.5922174        l,e99.0,e99.9,nproj,rcpsp
   0.00000000   0.00000000   0.00000000   0.00000000     rms, ekb1, ekb2, epsatm
    2   0.000   0.000    0   2.5922174        l,e99.0,e99.9,nproj,rcpsp
   0.00000000   0.00000000   0.00000000   0.00000000     rms, ekb1, ekb2, epsatm
    2.54196289048337    0.05499530377757    0.78827945413088   rchrg,fchrg,qchrg
 pspatm: epsatm=   -1.54393848
         --- l  ekb(1:nproj) -->
             0    1.755924
             1    0.853613
 pspatm: atomic psp has been read  and splines computed

   2.68671335E-01                                ecore*ucvol(ha*bohr**3)
--------------------------------------------------------------------------------

P newkpt: treating      4 bands with npw=    2843 for ikpt=   1
P newkpt: treating      4 bands with npw=    2842 for ikpt=   2

 setup2: Arith. and geom. avg. npw (full set) are    2842.750    2842.750

================================================================================

     iter   Etot(hartree)      deltaE(h)  residm     vres2    diffor    maxfor
 ETOT  1  -17.771046145841    -1.777E+01 4.713E-02 1.737E+02 0.000E+00 0.000E+00
 ETOT  2  -17.778320608322    -7.274E-03 5.435E-07 1.564E+02 0.000E+00 0.000E+00
 ETOT  3  -17.799907212319    -2.159E-02 1.147E-04 2.538E-01 0.000E+00 0.000E+00
 ETOT  4  -17.799925080449    -1.787E-05 5.902E-08 1.153E-02 0.000E+00 0.000E+00
 ETOT  5  -17.799925884615    -8.042E-07 3.969E-09 3.324E-05 0.000E+00 0.000E+00
 ETOT  6  -17.799925887483    -2.868E-09 4.802E-11 1.223E-05 0.000E+00 0.000E+00
 ETOT  7  -17.799925888891    -1.409E-09 6.508E-12 9.720E-08 0.000E+00 0.000E+00
 ETOT  8  -17.799925888891    -3.908E-14 8.299E-13 5.658E-09 0.000E+00 0.000E+00

 At SCF step    8   max residual=  8.30E-13 < tolwfr=  1.00E-12 =>converged.

 Cartesian components of stress tensor (hartree/bohr^3)
  sigma(1 1)= -2.24285625E-03  sigma(3 2)=  0.00000000E+00
  sigma(2 2)= -2.24285625E-03  sigma(3 1)=  0.00000000E+00
  sigma(3 3)= -2.24285625E-03  sigma(2 1)=  0.00000000E+00

================================================================================

 ----iterations are completed or convergence reached----

 Mean square residual over all n,k,spin=   6.3523E-13; max=  8.2989E-13
  -0.2500  0.5000  0.0000    1  8.29888E-13 kpt; spin; max resid(k); each band:
 4.96E-13 6.16E-13 8.30E-13 5.26E-13
  -0.2500  0.0000  0.0000    1  7.83744E-13 kpt; spin; max resid(k); each band:
 6.22E-13 7.84E-13 6.07E-13 6.02E-13
 reduced coordinates (array xred) for    2 atoms
       0.000000000000      0.000000000000      0.000000000000
       0.500000000000      0.500000000000      0.500000000000
 rms dE/dt=  0.0000E+00; max dE/dt=  0.0000E+00; dE/dt below (all hartree)
    1       0.000000000000      0.000000000000      0.000000000000
    2       0.000000000000      0.000000000000      0.000000000000

 cartesian coordinates (angstrom) at end:
    1      0.00000000000000     0.00000000000000     0.00000000000000
    2      1.95795567178300     1.95795567178300     1.95795567178300

 cartesian forces (hartree/bohr) at end:
    1     -0.00000000000000    -0.00000000000000    -0.00000000000000
    2     -0.00000000000000    -0.00000000000000    -0.00000000000000
 frms,max,avg= 0.0000000E+00 0.0000000E+00   0.000E+00  0.000E+00  0.000E+00 h/b

 cartesian forces (eV/Angstrom) at end:
    1     -0.00000000000000    -0.00000000000000    -0.00000000000000
    2     -0.00000000000000    -0.00000000000000    -0.00000000000000
 frms,max,avg= 0.0000000E+00 0.0000000E+00   0.000E+00  0.000E+00  0.000E+00 e/A
 length scales=  7.400000000000  7.400000000000  7.400000000000 bohr
              =  3.915911343566  3.915911343566  3.915911343566 angstroms
 prteigrs : about to open file t56o_EIG
 Fermi (or HOMO) energy (hartree) =   0.27109   Average Vxc (hartree)=  -0.43989
 Eigenvalues (hartree) for nkpt=   2  k points:
 kpt#   1, nband=  4, wtk=  0.75000, kpt= -0.2500  0.5000  0.0000 (reduced coord)
  -0.30096   0.11386   0.19769   0.23974
 kpt#   2, nband=  4, wtk=  0.25000, kpt= -0.2500  0.0000  0.0000 (reduced coord)
  -0.34964   0.17412   0.27109   0.27109
 Total charge density [el/Bohr^3]
,     Maximum=    9.6694E-01  at reduced coord.    0.0750    0.9000    0.9750
,Next maximum=    9.6694E-01  at reduced coord.    0.0500    0.9000    0.9750
,     Minimum=    9.0582E-04  at reduced coord.    0.5000    0.5000    0.5000
,Next minimum=    9.7914E-04  at reduced coord.    0.5000    0.5000    0.4750

--------------------------------------------------------------------------------
 Components of total free energy (in Hartree) :

    Kinetic energy  =  1.21388397572624E+01
    Hartree energy  =  4.63459212167123E+00
    XC energy       = -5.16552660203607E+00
    Ewald energy    = -1.41586535270872E+01
    PspCore energy  =  2.65207721942949E-03
    Loc. psp. energy= -1.74654144748008E+01
    NL   psp  energy=  2.21358475887977E+00
    >>>>>>>>> Etotal= -1.77999258888912E+01

 Other information on the energy :
    Total energy(eV)= -4.84360616042171E+02 ; Band energy (Ha)=   5.5880298765E-01
--------------------------------------------------------------------------------

 Cartesian components of stress tensor (hartree/bohr^3)
  sigma(1 1)= -2.24285625E-03  sigma(3 2)=  0.00000000E+00
  sigma(2 2)= -2.24285625E-03  sigma(3 1)=  0.00000000E+00
  sigma(3 3)= -2.24285625E-03  sigma(2 1)=  0.00000000E+00

-Cartesian components of stress tensor (GPa)         [Pressure=  6.5987E+01 GPa]
- sigma(1 1)= -6.59870981E+01  sigma(3 2)=  0.00000000E+00
- sigma(2 2)= -6.59870981E+01  sigma(3 1)=  0.00000000E+00
- sigma(3 3)= -6.59870981E+01  sigma(2 1)=  0.00000000E+00

== END DATASET(S) ==============================================================
================================================================================
  
 -outvars: echo values of variables after computation  --------
     acell    7.4000000000E+00  7.4000000000E+00  7.4000000000E+00 Bohr
       amu    1.59994000E+01  2.43050000E+01
      ecut    7.00000000E+01 Hartree
    etotal   -1.7799925889E+01
     fcart   -0.0000000000E+00 -0.0000000000E+00 -0.0000000000E+00
             -0.0000000000E+00 -0.0000000000E+00 -0.0000000000E+00
      iscf         3
       kpt   -2.50000000E-01  5.00000000E-01  0.00000000E+00
             -2.50000000E-01  0.00000000E+00  0.00000000E+00
   kptrlen    1.48000000E+01
    kptopt         1
  kptrlatt    2 -2  2  -2  2  2  -2 -2  2
P    mkmem         2
     natom         2
     nband         4
     ngfft        40      40      40
      nkpt         2
     nstep        40
      nsym        48
    ntypat         2
       occ    2.000000  2.000000  2.000000  2.000000
     rprim    0.0000000000E+00  5.0000000000E-01  5.0000000000E-01
              5.0000000000E-01  0.0000000000E+00  5.0000000000E-01
              5.0000000000E-01  5.0000000000E-01  0.0000000000E+00
    shiftk    5.00000000E-01  5.00000000E-01  5.00000000E-01
   spgroup       225
    strten   -2.2428562542E-03 -2.2428562542E-03 -2.2428562542E-03
              0.0000000000E+00  0.0000000000E+00  0.0000000000E+00
    symrel    1  0  0   0  1  0   0  0  1      -1  0  0   0 -1  0   0  0 -1
              0 -1  1   0 -1  0   1 -1  0       0  1 -1   0  1  0  -1  1  0
             -1  0  0  -1  0  1  -1  1  0       1  0  0   1  0 -1   1 -1  0
              0  1 -1   1  0 -1   0  0 -1       0 -1  1  -1  0  1   0  0  1
             -1  0  0  -1  1  0  -1  0  1       1  0  0   1 -1  0   1  0 -1
              0 -1  1   1 -1  0   0 -1  0       0  1 -1  -1  1  0   0  1  0
              1  0  0   0  0  1   0  1  0      -1  0  0   0  0 -1   0 -1  0
              0  1 -1   0  0 -1   1  0 -1       0 -1  1   0  0  1  -1  0  1
             -1  0  1  -1  1  0  -1  0  0       1  0 -1   1 -1  0   1  0  0
              0 -1  0   1 -1  0   0 -1  1       0  1  0  -1  1  0   0  1 -1
              1  0 -1   0  0 -1   0  1 -1      -1  0  1   0  0  1   0 -1  1
              0  1  0   0  0  1   1  0  0       0 -1  0   0  0 -1  -1  0  0
              1  0 -1   0  1 -1   0  0 -1      -1  0  1   0 -1  1   0  0  1
              0 -1  0   0 -1  1   1 -1  0       0  1  0   0  1 -1  -1  1  0
             -1  0  1  -1  0  0  -1  1  0       1  0 -1   1  0  0   1 -1  0
              0  1  0   1  0  0   0  0  1       0 -1  0  -1  0  0   0  0 -1
              0  0 -1   0  1 -1   1  0 -1       0  0  1   0 -1  1  -1  0  1
              1 -1  0   0 -1  1   0 -1  0      -1  1  0   0  1 -1   0  1  0
              0  0  1   1  0  0   0  1  0       0  0 -1  -1  0  0   0 -1  0
             -1  1  0  -1  0  0  -1  0  1       1 -1  0   1  0  0   1  0 -1
              0  0  1   0  1  0   1  0  0       0  0 -1   0 -1  0  -1  0  0
              1 -1  0   0 -1  0   0 -1  1      -1  1  0   0  1  0   0  1 -1
              0  0 -1   1  0 -1   0  1 -1       0  0  1  -1  0  1   0 -1  1
             -1  1  0  -1  0  1  -1  0  0       1 -1  0   1  0 -1   1  0  0
    tolwfr    1.00000000E-12
     typat    1  2
       wtk      0.75000    0.25000
    xangst    0.0000000000E+00  0.0000000000E+00  0.0000000000E+00
              1.9579556718E+00  1.9579556718E+00  1.9579556718E+00
     xcart    0.0000000000E+00  0.0000000000E+00  0.0000000000E+00
              3.7000000000E+00  3.7000000000E+00  3.7000000000E+00
      xred    0.0000000000E+00  0.0000000000E+00  0.0000000000E+00
              5.0000000000E-01  5.0000000000E-01  5.0000000000E-01
     znucl      8.00000   12.00000

================================================================================

- Total cpu        time (s,m,h):          4.6        0.08      0.001
- Total wall clock time (s,m,h):          4.6        0.08      0.001

- For major independent code sections, cpu and wall times (sec),
- as well as % of the total time and number of calls 

- routine                 cpu     %       wall     %      number of calls 
-                                                          (-1=no count)
- fourwf(pot)            1.413  31.0      1.415  31.1            357
- forces                 1.015  22.3      1.018  22.4              8
- mkcore                 0.653  14.3      0.653  14.3             10
- timing timab           0.507  11.1      0.507  11.1             12
- pspini                 0.356   7.8      0.356   7.8              1
- fourwf(den)            0.143   3.1      0.149   3.3             64
- symrhg(no FFT)         0.124   2.7      0.124   2.7              8
- fourdp                 0.107   2.4      0.111   2.4             41
- invars2                0.104   2.3      0.103   2.3              1
- stress                 0.096   2.1      0.097   2.1              1
- nonlop(apply)          0.093   2.0      0.088   1.9            357
- xc:pot/=fourdp         0.071   1.6      0.068   1.5              9
- projbd                 0.056   1.2      0.047   1.0            554
- abinit(2)              0.030   0.7      0.030   0.7              1
- 56   others            0.118   2.6      0.121   2.7

- subtotal               4.886 107.4      4.887 107.4

================================================================================

 Calculation completed.
.Delivered    5 WARNINGs and   0 COMMENTs to log file.
+Overall time at end (sec) : cpu=          4.6  wall=          4.6
