
.Version 5.6.3  of ABINIT 
.(sequential version, prepared for a x86_64_linux_gcc4.3 computer) 

.Copyright (C) 1998-2008 ABINIT group . 
 ABINIT comes with ABSOLUTELY NO WARRANTY.
 It is free software, and you are welcome to redistribute it
 under certain conditions (GNU General Public License,
 see ~abinit/COPYING or http://www.gnu.org/copyleft/gpl.txt).

 ABINIT is a project of the Universite Catholique de Louvain,
 Corning Inc. and other collaborators, see ~abinit/doc/developers/contributors.txt .
 Please read ~abinit/doc/users/acknowledgments.html for suggested
 acknowledgments of the ABINIT effort.
 For more information, see http://www.abinit.org .

.Starting date : Thu  6 Nov 2008.
  
- input  file    -> /home/gonze/ABINIT/ABINITv5.6.3/test_gcc43/5.6.3-private/tests/v3/Input/t60.in
- output file    -> t60.out
- root for input  files -> t60i
- root for output files -> t60o


 Symmetries : space group Fm -3 m (#225); Bravais cF (face-center cubic)
================================================================================
 Values of the parameters that define the memory need of the present run
   intxc =         0  ionmov =         0    iscf =         5 xclevel =         1
  lmnmax =         2   lnmax =         2   mband =         5  mffmem =         1
P  mgfft =        36   mkmem =         2 mpssoang=         3     mpw =      1724
  mqgrid =      3001   natom =         2    nfft =     46656    nkpt =         2
  nloalg =         4  nspden =         1 nspinor =         1  nsppol =         1
    nsym =        48  n1xccc =      2501  ntypat =         2  occopt =         1
================================================================================
P This job should need less than                      12.445 Mbytes of memory.
  Rough estimation (10% accuracy) of disk space for files :
  WF disk file :      0.265 Mbytes ; DEN or POT disk file :      0.358 Mbytes.
================================================================================

 -outvars: echo values of preprocessed input variables --------
     acell    1.0470000000E+01  1.0470000000E+01  1.0470000000E+01 Bohr
       amu    2.29897680E+01  3.54527000E+01
    diemac    4.00000000E+00
      ecut    2.50000000E+01 Hartree
      iscf         5
       kpt   -2.50000000E-01  5.00000000E-01  0.00000000E+00
             -2.50000000E-01  0.00000000E+00  0.00000000E+00
   kptrlen    2.09400000E+01
    kptopt         1
  kptrlatt    2 -2  2  -2  2  2  -2 -2  2
P    mkmem         2
     natom         2
     nband         5
     ngfft        36      36      36
      nkpt         2
     nstep        10
      nsym        48
    ntypat         2
       occ    2.000000  2.000000  2.000000  2.000000  0.000000
     rprim    0.0000000000E+00  5.0000000000E-01  5.0000000000E-01
              5.0000000000E-01  0.0000000000E+00  5.0000000000E-01
              5.0000000000E-01  5.0000000000E-01  0.0000000000E+00
    shiftk    5.00000000E-01  5.00000000E-01  5.00000000E-01
   spgroup       225
    symrel    1  0  0   0  1  0   0  0  1      -1  0  0   0 -1  0   0  0 -1
              0 -1  1   0 -1  0   1 -1  0       0  1 -1   0  1  0  -1  1  0
             -1  0  0  -1  0  1  -1  1  0       1  0  0   1  0 -1   1 -1  0
              0  1 -1   1  0 -1   0  0 -1       0 -1  1  -1  0  1   0  0  1
             -1  0  0  -1  1  0  -1  0  1       1  0  0   1 -1  0   1  0 -1
              0 -1  1   1 -1  0   0 -1  0       0  1 -1  -1  1  0   0  1  0
              1  0  0   0  0  1   0  1  0      -1  0  0   0  0 -1   0 -1  0
              0  1 -1   0  0 -1   1  0 -1       0 -1  1   0  0  1  -1  0  1
             -1  0  1  -1  1  0  -1  0  0       1  0 -1   1 -1  0   1  0  0
              0 -1  0   1 -1  0   0 -1  1       0  1  0  -1  1  0   0  1 -1
              1  0 -1   0  0 -1   0  1 -1      -1  0  1   0  0  1   0 -1  1
              0  1  0   0  0  1   1  0  0       0 -1  0   0  0 -1  -1  0  0
              1  0 -1   0  1 -1   0  0 -1      -1  0  1   0 -1  1   0  0  1
              0 -1  0   0 -1  1   1 -1  0       0  1  0   0  1 -1  -1  1  0
             -1  0  1  -1  0  0  -1  1  0       1  0 -1   1  0  0   1 -1  0
              0  1  0   1  0  0   0  0  1       0 -1  0  -1  0  0   0  0 -1
              0  0 -1   0  1 -1   1  0 -1       0  0  1   0 -1  1  -1  0  1
              1 -1  0   0 -1  1   0 -1  0      -1  1  0   0  1 -1   0  1  0
              0  0  1   1  0  0   0  1  0       0  0 -1  -1  0  0   0 -1  0
             -1  1  0  -1  0  0  -1  0  1       1 -1  0   1  0  0   1  0 -1
              0  0  1   0  1  0   1  0  0       0  0 -1   0 -1  0  -1  0  0
              1 -1  0   0 -1  0   0 -1  1      -1  1  0   0  1  0   0  1 -1
              0  0 -1   1  0 -1   0  1 -1       0  0  1  -1  0  1   0 -1  1
             -1  1  0  -1  0  1  -1  0  0       1 -1  0   1  0 -1   1  0  0
    toldfe    1.00000000E-06 Hartree
     typat    1  2
       wtk      0.75000    0.25000
    xangst    0.0000000000E+00  0.0000000000E+00  0.0000000000E+00
              2.7702426870E+00  2.7702426870E+00  2.7702426870E+00
     xcart    0.0000000000E+00  0.0000000000E+00  0.0000000000E+00
              5.2350000000E+00  5.2350000000E+00  5.2350000000E+00
      xred    0.0000000000E+00  0.0000000000E+00  0.0000000000E+00
              5.0000000000E-01  5.0000000000E-01  5.0000000000E-01
     znucl     11.00000   17.00000

================================================================================

 chkinp: Checking input parameters for consistency.

================================================================================
== DATASET  1 ==================================================================

 Real(R)+Recip(G) space primitive vectors, cartesian coordinates (Bohr,Bohr^-1):
 R(1)=  0.0000000  5.2350000  5.2350000  G(1)= -0.0955110  0.0955110  0.0955110
 R(2)=  5.2350000  0.0000000  5.2350000  G(2)=  0.0955110 -0.0955110  0.0955110
 R(3)=  5.2350000  5.2350000  0.0000000  G(3)=  0.0955110  0.0955110 -0.0955110
 Unit cell volume ucvol=  2.8693271E+02 bohr^3
 Angles (23,13,12)=  6.00000000E+01  6.00000000E+01  6.00000000E+01 degrees

 getcut: wavevector=  0.0000  0.0000  0.0000  ngfft=  36  36  36
         ecut(hartree)=     25.000   => boxcut(ratio)=   2.16041

--- Pseudopotential description ------------------------------------------------
- pspini: atom type   1  psp file is /home/gonze/ABINIT/ABINITv5.6.3/test_gcc43/5.6.3-private/tests/Psps_for_tests/11na.pspnc
- pspatm: opening atomic psp file    /home/gonze/ABINIT/ABINITv5.6.3/test_gcc43/5.6.3-private/tests/Psps_for_tests/11na.pspnc
  Troullier-Martins psp for element  Na        Mon Oct 31 11:14:49 EST 1994
  11.00000   1.00000    940714                znucl, zion, pspdat
    1    1    2    2      2001   0.00000      pspcod,pspxc,lmax,lloc,mmax,r2well
    0   2.613   6.900    1   2.9359409        l,e99.0,e99.9,nproj,rcpsp
   0.00000000   0.00000000   0.00000000   0.00000000     rms, ekb1, ekb2, epsatm
    1   0.769   1.167    1   3.1646217        l,e99.0,e99.9,nproj,rcpsp
   0.00000000   0.00000000   0.00000000   0.00000000     rms, ekb1, ekb2, epsatm
    2   0.991   2.977    0   2.9359409        l,e99.0,e99.9,nproj,rcpsp
   0.00000000   0.00000000   0.00000000   0.00000000     rms, ekb1, ekb2, epsatm
    2.09488187080490    1.31996662950249   10.58981932283911   rchrg,fchrg,qchrg
 pspatm: epsatm=   10.64390676
         --- l  ekb(1:nproj) -->
             0    1.300581
             1    0.590411
 pspatm: atomic psp has been read  and splines computed

- pspini: atom type   2  psp file is /home/gonze/ABINIT/ABINITv5.6.3/test_gcc43/5.6.3-private/tests/Psps_for_tests/17cl.pspnc
- pspatm: opening atomic psp file    /home/gonze/ABINIT/ABINITv5.6.3/test_gcc43/5.6.3-private/tests/Psps_for_tests/17cl.pspnc
  Troullier-Martins psp for element  Cl        Thu Oct 27 17:32:09 EDT 1994
  17.00000   7.00000    940714                znucl, zion, pspdat
    1    1    2    2      2001   0.00000      pspcod,pspxc,lmax,lloc,mmax,r2well
    0  10.493  25.212    1   1.6350894        l,e99.0,e99.9,nproj,rcpsp
   0.00000000   0.00000000   0.00000000   0.00000000     rms, ekb1, ekb2, epsatm
    1   5.554   8.510    1   1.6350894        l,e99.0,e99.9,nproj,rcpsp
   0.00000000   0.00000000   0.00000000   0.00000000     rms, ekb1, ekb2, epsatm
    2   0.000   0.000    0   1.6350894        l,e99.0,e99.9,nproj,rcpsp
   0.00000000   0.00000000   0.00000000   0.00000000     rms, ekb1, ekb2, epsatm
    1.23315314129373    1.11669953786602    1.82740311420084   rchrg,fchrg,qchrg
 pspatm: epsatm=    2.73037554
         --- l  ekb(1:nproj) -->
             0    6.290146
             1    3.746067
 pspatm: atomic psp has been read  and splines computed

   1.06994258E+02                                ecore*ucvol(ha*bohr**3)
--------------------------------------------------------------------------------

P newkpt: treating      5 bands with npw=    1719 for ikpt=   1
P newkpt: treating      5 bands with npw=    1724 for ikpt=   2

 setup2: Arith. and geom. avg. npw (full set) are    1720.250    1720.249

================================================================================

     iter   Etot(hartree)      deltaE(h)  residm     vres2    diffor    maxfor
 ETOT  1  -22.917933089214    -2.292E+01 5.229E-02 2.851E+02 0.000E+00 0.000E+00
 ETOT  2  -22.977838443672    -5.991E-02 1.910E-05 5.901E+01 0.000E+00 0.000E+00
 ETOT  3  -22.992224881588    -1.439E-02 4.173E-04 6.429E+00 0.000E+00 0.000E+00
 ETOT  4  -22.992868387020    -6.435E-04 1.412E-05 3.099E-01 0.000E+00 0.000E+00
 ETOT  5  -22.992891705351    -2.332E-05 1.515E-06 1.151E-02 0.000E+00 0.000E+00
 ETOT  6  -22.992894310407    -2.605E-06 6.591E-08 1.272E-02 0.000E+00 0.000E+00
 ETOT  7  -22.992894742679    -4.323E-07 2.636E-08 2.482E-03 0.000E+00 0.000E+00
 ETOT  8  -22.992894910558    -1.679E-07 6.447E-09 3.297E-06 0.000E+00 0.000E+00

 At SCF step    8, etot is converged :
  for the second time, diff in etot=  1.679E-07 < toldfe=  1.000E-06

 Cartesian components of stress tensor (hartree/bohr^3)
  sigma(1 1)=  1.43063052E-05  sigma(3 2)=  0.00000000E+00
  sigma(2 2)=  1.43063052E-05  sigma(3 1)=  0.00000000E+00
  sigma(3 3)=  1.43063052E-05  sigma(2 1)=  0.00000000E+00

================================================================================

 ----iterations are completed or convergence reached----

 Mean square residual over all n,k,spin=   2.2415E-09; max=  6.4469E-09
  -0.2500  0.5000  0.0000    1  6.44688E-09 kpt; spin; max resid(k); each band:
 1.01E-09 9.93E-10 8.88E-10 7.75E-11 6.45E-09
  -0.2500  0.0000  0.0000    1  6.14093E-09 kpt; spin; max resid(k); each band:
 3.04E-09 3.72E-09 4.66E-11 4.66E-11 6.14E-09
 reduced coordinates (array xred) for    2 atoms
       0.000000000000      0.000000000000      0.000000000000
       0.500000000000      0.500000000000      0.500000000000
 rms dE/dt=  0.0000E+00; max dE/dt=  0.0000E+00; dE/dt below (all hartree)
    1       0.000000000000      0.000000000000      0.000000000000
    2       0.000000000000      0.000000000000      0.000000000000

 cartesian coordinates (angstrom) at end:
    1      0.00000000000000     0.00000000000000     0.00000000000000
    2      2.77024268696865     2.77024268696865     2.77024268696865

 cartesian forces (hartree/bohr) at end:
    1     -0.00000000000000    -0.00000000000000    -0.00000000000000
    2     -0.00000000000000    -0.00000000000000    -0.00000000000000
 frms,max,avg= 0.0000000E+00 0.0000000E+00   0.000E+00  0.000E+00  0.000E+00 h/b

 cartesian forces (eV/Angstrom) at end:
    1     -0.00000000000000    -0.00000000000000    -0.00000000000000
    2     -0.00000000000000    -0.00000000000000    -0.00000000000000
 frms,max,avg= 0.0000000E+00 0.0000000E+00   0.000E+00  0.000E+00  0.000E+00 e/A
 length scales= 10.470000000000 10.470000000000 10.470000000000 bohr
              =  5.540485373937  5.540485373937  5.540485373937 angstroms
 prteigrs : about to open file t60o_EIG
 Fermi (or HOMO) energy (hartree) =  -0.05545   Average Vxc (hartree)=  -0.36157
 Eigenvalues (hartree) for nkpt=   2  k points:
 kpt#   1, nband=  5, wtk=  0.75000, kpt= -0.2500  0.5000  0.0000 (reduced coord)
  -0.50185  -0.11553  -0.08227  -0.06814   0.24340
 kpt#   2, nband=  5, wtk=  0.25000, kpt= -0.2500  0.0000  0.0000 (reduced coord)
  -0.51073  -0.09545  -0.05545  -0.05545   0.18761
 Total charge density [el/Bohr^3]
,     Maximum=    2.6000E-01  at reduced coord.    0.4167    0.5833    0.6111
,Next maximum=    2.6000E-01  at reduced coord.    0.3889    0.5833    0.6111
,     Minimum=    1.2043E-04  at reduced coord.    0.0000    0.0000    0.0000
,Next minimum=    1.3751E-04  at reduced coord.    0.0278    0.0000    0.0000

--------------------------------------------------------------------------------
 Components of total free energy (in Hartree) :

    Kinetic energy  =  5.62045071746835E+00
    Hartree energy  =  3.50250160871609E+00
    XC energy       = -1.10078525254575E+01
    Ewald energy    = -1.16761873970179E+01
    PspCore energy  =  3.72889727396775E-01
    Loc. psp. energy= -1.35811388697753E+01
    NL   psp  energy=  3.77644182811148E+00
    >>>>>>>>> Etotal= -2.29928949105580E+01

 Other information on the energy :
    Total energy(eV)= -6.25668489463833E+02 ; Band energy (Ha)=  -1.5102247330E+00
--------------------------------------------------------------------------------

 Cartesian components of stress tensor (hartree/bohr^3)
  sigma(1 1)=  1.43063052E-05  sigma(3 2)=  0.00000000E+00
  sigma(2 2)=  1.43063052E-05  sigma(3 1)=  0.00000000E+00
  sigma(3 3)=  1.43063052E-05  sigma(2 1)=  0.00000000E+00

-Cartesian components of stress tensor (GPa)         [Pressure= -4.2091E-01 GPa]
- sigma(1 1)=  4.20905960E-01  sigma(3 2)=  0.00000000E+00
- sigma(2 2)=  4.20905960E-01  sigma(3 1)=  0.00000000E+00
- sigma(3 3)=  4.20905960E-01  sigma(2 1)=  0.00000000E+00

== END DATASET(S) ==============================================================
================================================================================
  
 -outvars: echo values of variables after computation  --------
     acell    1.0470000000E+01  1.0470000000E+01  1.0470000000E+01 Bohr
       amu    2.29897680E+01  3.54527000E+01
    diemac    4.00000000E+00
      ecut    2.50000000E+01 Hartree
    etotal   -2.2992894911E+01
     fcart   -0.0000000000E+00 -0.0000000000E+00 -0.0000000000E+00
             -0.0000000000E+00 -0.0000000000E+00 -0.0000000000E+00
      iscf         5
       kpt   -2.50000000E-01  5.00000000E-01  0.00000000E+00
             -2.50000000E-01  0.00000000E+00  0.00000000E+00
   kptrlen    2.09400000E+01
    kptopt         1
  kptrlatt    2 -2  2  -2  2  2  -2 -2  2
P    mkmem         2
     natom         2
     nband         5
     ngfft        36      36      36
      nkpt         2
     nstep        10
      nsym        48
    ntypat         2
       occ    2.000000  2.000000  2.000000  2.000000  0.000000
     rprim    0.0000000000E+00  5.0000000000E-01  5.0000000000E-01
              5.0000000000E-01  0.0000000000E+00  5.0000000000E-01
              5.0000000000E-01  5.0000000000E-01  0.0000000000E+00
    shiftk    5.00000000E-01  5.00000000E-01  5.00000000E-01
   spgroup       225
    strten    1.4306305200E-05  1.4306305200E-05  1.4306305200E-05
              0.0000000000E+00  0.0000000000E+00  0.0000000000E+00
    symrel    1  0  0   0  1  0   0  0  1      -1  0  0   0 -1  0   0  0 -1
              0 -1  1   0 -1  0   1 -1  0       0  1 -1   0  1  0  -1  1  0
             -1  0  0  -1  0  1  -1  1  0       1  0  0   1  0 -1   1 -1  0
              0  1 -1   1  0 -1   0  0 -1       0 -1  1  -1  0  1   0  0  1
             -1  0  0  -1  1  0  -1  0  1       1  0  0   1 -1  0   1  0 -1
              0 -1  1   1 -1  0   0 -1  0       0  1 -1  -1  1  0   0  1  0
              1  0  0   0  0  1   0  1  0      -1  0  0   0  0 -1   0 -1  0
              0  1 -1   0  0 -1   1  0 -1       0 -1  1   0  0  1  -1  0  1
             -1  0  1  -1  1  0  -1  0  0       1  0 -1   1 -1  0   1  0  0
              0 -1  0   1 -1  0   0 -1  1       0  1  0  -1  1  0   0  1 -1
              1  0 -1   0  0 -1   0  1 -1      -1  0  1   0  0  1   0 -1  1
              0  1  0   0  0  1   1  0  0       0 -1  0   0  0 -1  -1  0  0
              1  0 -1   0  1 -1   0  0 -1      -1  0  1   0 -1  1   0  0  1
              0 -1  0   0 -1  1   1 -1  0       0  1  0   0  1 -1  -1  1  0
             -1  0  1  -1  0  0  -1  1  0       1  0 -1   1  0  0   1 -1  0
              0  1  0   1  0  0   0  0  1       0 -1  0  -1  0  0   0  0 -1
              0  0 -1   0  1 -1   1  0 -1       0  0  1   0 -1  1  -1  0  1
              1 -1  0   0 -1  1   0 -1  0      -1  1  0   0  1 -1   0  1  0
              0  0  1   1  0  0   0  1  0       0  0 -1  -1  0  0   0 -1  0
             -1  1  0  -1  0  0  -1  0  1       1 -1  0   1  0  0   1  0 -1
              0  0  1   0  1  0   1  0  0       0  0 -1   0 -1  0  -1  0  0
              1 -1  0   0 -1  0   0 -1  1      -1  1  0   0  1  0   0  1 -1
              0  0 -1   1  0 -1   0  1 -1       0  0  1  -1  0  1   0 -1  1
             -1  1  0  -1  0  1  -1  0  0       1 -1  0   1  0 -1   1  0  0
    toldfe    1.00000000E-06 Hartree
     typat    1  2
       wtk      0.75000    0.25000
    xangst    0.0000000000E+00  0.0000000000E+00  0.0000000000E+00
              2.7702426870E+00  2.7702426870E+00  2.7702426870E+00
     xcart    0.0000000000E+00  0.0000000000E+00  0.0000000000E+00
              5.2350000000E+00  5.2350000000E+00  5.2350000000E+00
      xred    0.0000000000E+00  0.0000000000E+00  0.0000000000E+00
              5.0000000000E-01  5.0000000000E-01  5.0000000000E-01
     znucl     11.00000   17.00000

================================================================================

- Total cpu        time (s,m,h):          3.5        0.06      0.001
- Total wall clock time (s,m,h):          3.5        0.06      0.001

- For major independent code sections, cpu and wall times (sec),
- as well as % of the total time and number of calls 

- routine                 cpu     %       wall     %      number of calls 
-                                                          (-1=no count)
- fourwf(pot)            1.268  36.7      1.275  36.8            484
- timing timab           0.502  14.5      0.503  14.5             12
- pspini                 0.452  13.1      0.452  13.1              1
- forces                 0.318   9.2      0.316   9.1              8
- mkcore                 0.117   3.4      0.117   3.4             10
- invars2                0.104   3.0      0.104   3.0              1
- fourwf(den)            0.102   2.9      0.094   2.7             64
- nonlop(apply)          0.096   2.8      0.093   2.7            484
- symrhg(no FFT)         0.082   2.4      0.083   2.4              8
- fourdp                 0.071   2.1      0.075   2.2             41
- projbd                 0.069   2.0      0.066   1.9            768
- xc:pot/=fourdp         0.049   1.4      0.047   1.4              9
- abinit(2)              0.030   0.9      0.030   0.9              1
- stress                 0.024   0.7      0.024   0.7              1
- getghc-other           0.018   0.5      0.018   0.5             -1
- 55   others            0.076   2.2      0.082   2.4

- subtotal               3.378  97.7      3.379  97.7

================================================================================

 Calculation completed.
.Delivered    0 WARNINGs and   0 COMMENTs to log file.
+Overall time at end (sec) : cpu=          3.5  wall=          3.5
