
.Version 5.6.4  of ABINIT 
.(sequential version, prepared for a x86_64_linux_gcc4.3 computer) 

.Copyright (C) 1998-2008 ABINIT group . 
 ABINIT comes with ABSOLUTELY NO WARRANTY.
 It is free software, and you are welcome to redistribute it
 under certain conditions (GNU General Public License,
 see ~abinit/COPYING or http://www.gnu.org/copyleft/gpl.txt).

 ABINIT is a project of the Universite Catholique de Louvain,
 Corning Inc. and other collaborators, see ~abinit/doc/developers/contributors.txt .
 Please read ~abinit/doc/users/acknowledgments.html for suggested
 acknowledgments of the ABINIT effort.
 For more information, see http://www.abinit.org .

.Starting date : Wed 19 Nov 2008.
  
- input  file    -> /home/gonze/ABINIT/ABINITv5.6.4/trunk/5.6.4-private/tests/v3/Input/t91.in
- output file    -> t91.out
- root for input  files -> t91i
- root for output files -> t91o


 Symmetries : space group P1 (#  1); Bravais aP (primitive triclinic)
================================================================================
 Values of the parameters that define the memory need of the present run
   intxc =         0  ionmov =         0    iscf =         3 xclevel =         1
  lmnmax =         2   lnmax =         2   mband =         4  mffmem =         1
P  mgfft =        16   mkmem =         4 mpssoang=         3     mpw =        69
  mqgrid =      3001   natom =         2    nfft =      4096    nkpt =         4
  nloalg =         4  nspden =         1 nspinor =         1  nsppol =         1
    nsym =         1  n1xccc =         0  ntypat =         1  occopt =         1
================================================================================
P This job should need less than                       1.109 Mbytes of memory.
  Rough estimation (10% accuracy) of disk space for files :
  WF disk file :      0.019 Mbytes ; DEN or POT disk file :      0.033 Mbytes.
================================================================================

 -outvars: echo values of preprocessed input variables --------
     acell    1.0000000000E+01  1.0000000000E+01  1.0000000000E+01 Bohr
       amu    1.00000000E+00
    densty    1.10000000E+00
    diemac    1.50000000E+00
      ecut    1.20000000E+00 Hartree
      iscf         3
       ixc         3
       kpt    0.00000000E+00  0.00000000E+00 -3.75000000E-01
              0.00000000E+00  0.00000000E+00 -1.25000000E-01
              0.00000000E+00  0.00000000E+00  1.25000000E-01
              0.00000000E+00  0.00000000E+00  3.75000000E-01
   mixalch    0.00000000E+00  1.00000000E+00
P    mkmem         4
     natom         2
     nband         4
     ngfft        16      16      16
      nkpt         4
      npsp         2
      nsym         1
  ntypalch         1
    ntypat         1
       occ    2.000000  2.000000  2.000000  2.000000
   spgroup         1
    tolwfr    1.00000000E-22
     typat    1  1
       wtk      0.25000    0.25000    0.25000    0.25000
    xangst    0.0000000000E+00  0.0000000000E+00 -7.9376581289E-01
              0.0000000000E+00  0.0000000000E+00  7.9376581289E-01
     xcart    0.0000000000E+00  0.0000000000E+00 -1.5000000000E+00
              0.0000000000E+00  0.0000000000E+00  1.5000000000E+00
      xred    0.0000000000E+00  0.0000000000E+00 -1.5000000000E-01
              0.0000000000E+00  0.0000000000E+00  1.5000000000E-01
 ziontypat    4.00000000E+00
     znucl     32.00000   14.00000

================================================================================

 chkinp: Checking input parameters for consistency.

================================================================================
== DATASET  1 ==================================================================

 Real(R)+Recip(G) space primitive vectors, cartesian coordinates (Bohr,Bohr^-1):
 R(1)= 10.0000000  0.0000000  0.0000000  G(1)=  0.1000000  0.0000000  0.0000000
 R(2)=  0.0000000 10.0000000  0.0000000  G(2)=  0.0000000  0.1000000  0.0000000
 R(3)=  0.0000000  0.0000000 10.0000000  G(3)=  0.0000000  0.0000000  0.1000000
 Unit cell volume ucvol=  1.0000000E+03 bohr^3
 Angles (23,13,12)=  9.00000000E+01  9.00000000E+01  9.00000000E+01 degrees

 getcut: wavevector=  0.0000  0.0000  0.0000  ngfft=  16  16  16
         ecut(hartree)=      1.200   => boxcut(ratio)=   3.24462

 getcut : COMMENT -
  Note that boxcut > 2.2 ; recall that boxcut=Gcut(box)/Gcut(sphere) = 2
  is sufficient for exact treatment of convolution.
  Such a large boxcut is a waste : you could raise ecut
  e.g. ecut=    3.158273 Hartrees makes boxcut=2


--- Pseudopotential description ------------------------------------------------
- pspini: atom type   1  psp file is /home/gonze/ABINIT/ABINITv5.6.4/trunk/5.6.4-private/tests/Psps_for_tests/32ge.SJ_mod
- pspatm: opening atomic psp file    /home/gonze/ABINIT/ABINITv5.6.4/trunk/5.6.4-private/tests/Psps_for_tests/32ge.SJ_mod
   Starkloff-Joannopoulos local psp ( !!! OLD : only for tests)
  32.00000   4.00000    900101                znucl, zion, pspdat
    5    3    0    0       700   0.00000      pspcod,pspxc,lmax,lloc,mmax,r2well
    1.000000E-06    2.603367E-02              r1 and al (Hamman grid)
    0   0.000   0.000    0   1.0500000        l,e99.0,e99.9,nproj,rcpsp
   0.00000000   0.00000000   0.00000000   0.00000000     rms, ekb1, ekb2, epsatm
    0.00000000000000    0.00000000000000    0.00000000000000   rchrg,fchrg,qchrg
 Note: local psp for atom with Z= 32.0
 pspatm: epsatm=   27.96404307
         --- l  ekb(1:nproj) -->
 pspatm: atomic psp has been read  and splines computed

- pspini: atom type   2  psp file is /home/gonze/ABINIT/ABINITv5.6.4/trunk/5.6.4-private/tests/Psps_for_tests/14si.Hamann_mod
- pspatm: opening atomic psp file    /home/gonze/ABINIT/ABINITv5.6.4/trunk/5.6.4-private/tests/Psps_for_tests/14si.Hamann_mod
   Si psp produced from Hamann's atompp on 14 Feb 1990 ( !! OLD, for tests only )
  14.00000   4.00000    900214                znucl, zion, pspdat
    5    3    2    0       770   0.00000      pspcod,pspxc,lmax,lloc,mmax,r2well
    1.000000E-06    2.357045E-02              r1 and al (Hamman grid)
    0   0.000   0.000    0   1.0529960        l,e99.0,e99.9,nproj,rcpsp
   0.00000000   0.00000000   0.00000000   0.00000000     rms, ekb1, ekb2, epsatm
    1   0.000   0.000    1   1.2715070        l,e99.0,e99.9,nproj,rcpsp
   0.00000000   0.00000000   0.00000000   0.00000000     rms, ekb1, ekb2, epsatm
    2   0.000   0.000    1   1.2715070        l,e99.0,e99.9,nproj,rcpsp
   0.00000000   0.00000000   0.00000000   0.00000000     rms, ekb1, ekb2, epsatm
    0.00000000000000    0.00000000000000    0.00000000000000   rchrg,fchrg,qchrg
 pspatm: epsatm=   28.17357484
         --- l  ekb(1:nproj) -->
             1   -2.083263
             2   -1.959803
 pspatm: atomic psp has been read  and splines computed

   4.50777197E+02                                ecore*ucvol(ha*bohr**3)
--------------------------------------------------------------------------------

P newkpt: treating      4 bands with npw=      65 for ikpt=   1
P newkpt: treating      4 bands with npw=      69 for ikpt=   2
P newkpt: treating      4 bands with npw=      69 for ikpt=   3
P newkpt: treating      4 bands with npw=      65 for ikpt=   4

 setup2: Arith. and geom. avg. npw (full set) are      67.000      66.970

================================================================================

     iter   Etot(hartree)      deltaE(h)  residm     vres2    diffor    maxfor
 ETOT  1  -6.9150416124650    -6.915E+00 1.462E-03 6.218E+00 6.909E-01 6.909E-01
 ETOT  2  -6.9259777419405    -1.094E-02 7.500E-07 2.779E-01 2.309E-02 7.140E-01
 ETOT  3  -6.9267953259487    -8.176E-04 1.446E-05 3.310E-02 8.634E-03 7.053E-01
 ETOT  4  -6.9268576187202    -6.229E-05 7.221E-07 1.358E-03 1.751E-03 7.071E-01
 ETOT  5  -6.9268511280982     6.491E-06 1.889E-07 2.179E-03 4.433E-05 7.070E-01
 ETOT  6  -6.9268608265001    -9.698E-06 9.998E-08 7.614E-05 3.646E-05 7.071E-01
 ETOT  7  -6.9268611046799    -2.782E-07 2.331E-09 1.292E-06 2.028E-06 7.071E-01
 ETOT  8  -6.9268611038916     7.883E-10 5.060E-11 5.545E-07 1.256E-06 7.071E-01
 ETOT  9  -6.9268611046967    -8.051E-10 5.355E-11 3.225E-07 8.726E-07 7.071E-01
 ETOT 10  -6.9268611061325    -1.436E-09 1.232E-11 3.327E-09 1.591E-07 7.071E-01
 ETOT 11  -6.9268611061403    -7.868E-12 1.050E-13 2.947E-10 1.342E-07 7.071E-01
 ETOT 12  -6.9268611061403     7.727E-14 1.918E-14 1.561E-10 4.479E-08 7.071E-01
 ETOT 13  -6.9268611061408    -5.551E-13 1.054E-14 3.058E-11 3.950E-09 7.071E-01
 ETOT 14  -6.9268611061410    -1.368E-13 1.129E-15 5.024E-13 5.256E-09 7.071E-01
 ETOT 15  -6.9268611061410    -2.665E-15 1.323E-17 3.899E-14 3.460E-09 7.071E-01
 ETOT 16  -6.9268611061410    -3.553E-15 4.406E-18 3.619E-14 8.136E-10 7.071E-01
 ETOT 17  -6.9268611061410    -1.332E-14 1.699E-18 2.155E-15 9.124E-11 7.071E-01
 ETOT 18  -6.9268611061409     3.020E-14 8.658E-20 8.994E-17 1.866E-10 7.071E-01
 ETOT 19  -6.9268611061410    -6.217E-15 7.466E-21 1.599E-17 5.195E-11 7.071E-01
 ETOT 20  -6.9268611061410    -3.109E-14 8.496E-22 1.687E-18 7.460E-12 7.071E-01
 ETOT 21  -6.9268611061410     5.329E-15 1.145E-22 4.145E-19 5.387E-12 7.071E-01
 ETOT 22  -6.9268611061410     8.882E-16 6.768E-23 1.363E-19 2.332E-12 7.071E-01

 At SCF step   22   max residual=  6.77E-23 < tolwfr=  1.00E-22 =>converged.

 Cartesian components of stress tensor (hartree/bohr^3)
  sigma(1 1)=  4.20420711E-04  sigma(3 2)=  0.00000000E+00
  sigma(2 2)=  4.20420711E-04  sigma(3 1)=  0.00000000E+00
  sigma(3 3)= -1.72628098E-03  sigma(2 1)=  0.00000000E+00

================================================================================

 ----iterations are completed or convergence reached----

 Mean square residual over all n,k,spin=   5.2027E-23; max=  6.7676E-23
   0.0000  0.0000 -0.3750    1  6.36656E-23 kpt; spin; max resid(k); each band:
 4.46E-23 6.37E-23 4.45E-23 4.91E-23
   0.0000  0.0000 -0.1250    1  6.76758E-23 kpt; spin; max resid(k); each band:
 4.43E-23 6.77E-23 5.47E-23 4.75E-23
   0.0000  0.0000  0.1250    1  6.76757E-23 kpt; spin; max resid(k); each band:
 4.43E-23 6.77E-23 5.87E-23 4.40E-23
   0.0000  0.0000  0.3750    1  6.36655E-23 kpt; spin; max resid(k); each band:
 4.46E-23 6.37E-23 4.45E-23 4.91E-23
 reduced coordinates (array xred) for    2 atoms
       0.000000000000      0.000000000000     -0.150000000000
       0.000000000000      0.000000000000      0.150000000000
 rms dE/dt=  4.0822E+00; max dE/dt=  7.0707E+00; dE/dt below (all hartree)
    1      -0.000000000012     -0.000000000004      7.070658488472
    2      -0.000000000011     -0.000000000004     -7.070658488332

 cartesian coordinates (angstrom) at end:
    1      0.00000000000000     0.00000000000000    -0.79376581288500
    2      0.00000000000000     0.00000000000000     0.79376581288500

 cartesian forces (hartree/bohr) at end:
    1      0.00000000000005     0.00000000000003    -0.70706584884019
    2     -0.00000000000005    -0.00000000000003     0.70706584884019
 frms,max,avg= 4.0822466E-01 7.0706585E-01   1.155E-12  3.999E-13 -7.034E-12 h/b

 cartesian forces (eV/Angstrom) at end:
    1      0.00000000000282     0.00000000000155   -36.35878476012436
    2     -0.00000000000282    -0.00000000000155    36.35878476012436
 frms,max,avg= 2.0991754E+01 3.6358785E+01   5.939E-11  2.056E-11 -3.617E-10 e/A
 length scales= 10.000000000000 10.000000000000 10.000000000000 bohr
              =  5.291772085900  5.291772085900  5.291772085900 angstroms
 prteigrs : about to open file t91o_EIG
 Fermi (or HOMO) energy (hartree) =  -0.17796   Average Vxc (hartree)=  -0.17262
 Eigenvalues (hartree) for nkpt=   4  k points:
 kpt#   1, nband=  4, wtk=  0.25000, kpt=  0.0000  0.0000 -0.3750 (reduced coord)
  -0.46574  -0.26054  -0.17796  -0.17796
 kpt#   2, nband=  4, wtk=  0.25000, kpt=  0.0000  0.0000 -0.1250 (reduced coord)
  -0.47216  -0.22317  -0.17953  -0.17953
 kpt#   3, nband=  4, wtk=  0.25000, kpt=  0.0000  0.0000  0.1250 (reduced coord)
  -0.47216  -0.22317  -0.17953  -0.17953
 kpt#   4, nband=  4, wtk=  0.25000, kpt=  0.0000  0.0000  0.3750 (reduced coord)
  -0.46574  -0.26054  -0.17796  -0.17796
 Total charge density [el/Bohr^3]
,     Maximum=    6.7081E-02  at reduced coord.    0.0000    0.8750    0.0000
,Next maximum=    6.7081E-02  at reduced coord.    0.0000    0.1250    0.0000
,     Minimum=    3.8257E-05  at reduced coord.    0.5000    0.5000    0.2500
,Next minimum=    3.8257E-05  at reduced coord.    0.5000    0.5000    0.7500

--------------------------------------------------------------------------------
 Components of total free energy (in Hartree) :

    Kinetic energy  =  2.53831572795367E+00
    Hartree energy  =  2.48837358072876E+00
    XC energy       = -2.14467324355125E+00
    Ewald energy    = -3.40312010772530E+00
    PspCore energy  =  4.50777197418484E-01
    Loc. psp. energy= -6.74889803426363E+00
    NL   psp  energy= -1.07636226701708E-01
    >>>>>>>>> Etotal= -6.92686110614098E+00

 Other information on the energy :
    Total energy(eV)= -1.88489476504106E+02 ; Band energy (Ha)=  -2.1365950807E+00
--------------------------------------------------------------------------------

 Cartesian components of stress tensor (hartree/bohr^3)
  sigma(1 1)=  4.20420711E-04  sigma(3 2)=  0.00000000E+00
  sigma(2 2)=  4.20420711E-04  sigma(3 1)=  0.00000000E+00
  sigma(3 3)= -1.72628098E-03  sigma(2 1)=  0.00000000E+00

-Cartesian components of stress tensor (GPa)         [Pressure=  8.6835E+00 GPa]
- sigma(1 1)=  1.23692023E+01  sigma(3 2)=  0.00000000E+00
- sigma(2 2)=  1.23692023E+01  sigma(3 1)=  0.00000000E+00
- sigma(3 3)= -5.07889312E+01  sigma(2 1)=  0.00000000E+00

== END DATASET(S) ==============================================================
================================================================================
  
 -outvars: echo values of variables after computation  --------
     acell    1.0000000000E+01  1.0000000000E+01  1.0000000000E+01 Bohr
       amu    1.00000000E+00
    densty    1.10000000E+00
    diemac    1.50000000E+00
      ecut    1.20000000E+00 Hartree
    etotal   -6.9268611061E+00
     fcart    5.4789720795E-14  3.0193505338E-14 -7.0706584884E-01
             -5.4789720795E-14 -3.0193505338E-14  7.0706584884E-01
      iscf         3
       ixc         3
       kpt    0.00000000E+00  0.00000000E+00 -3.75000000E-01
              0.00000000E+00  0.00000000E+00 -1.25000000E-01
              0.00000000E+00  0.00000000E+00  1.25000000E-01
              0.00000000E+00  0.00000000E+00  3.75000000E-01
   mixalch    0.00000000E+00  1.00000000E+00
P    mkmem         4
     natom         2
     nband         4
     ngfft        16      16      16
      nkpt         4
      npsp         2
      nsym         1
  ntypalch         1
    ntypat         1
       occ    2.000000  2.000000  2.000000  2.000000
   spgroup         1
    strten    4.2042071068E-04  4.2042071066E-04 -1.7262809752E-03
              0.0000000000E+00  0.0000000000E+00  0.0000000000E+00
    tolwfr    1.00000000E-22
     typat    1  1
       wtk      0.25000    0.25000    0.25000    0.25000
    xangst    0.0000000000E+00  0.0000000000E+00 -7.9376581289E-01
              0.0000000000E+00  0.0000000000E+00  7.9376581289E-01
     xcart    0.0000000000E+00  0.0000000000E+00 -1.5000000000E+00
              0.0000000000E+00  0.0000000000E+00  1.5000000000E+00
      xred    0.0000000000E+00  0.0000000000E+00 -1.5000000000E-01
              0.0000000000E+00  0.0000000000E+00  1.5000000000E-01
 ziontypat    4.00000000E+00
     znucl     32.00000   14.00000

================================================================================

- Total cpu        time (s,m,h):          1.3        0.02      0.000
- Total wall clock time (s,m,h):          1.3        0.02      0.000

- For major independent code sections, cpu and wall times (sec),
- as well as % of the total time and number of calls 

- routine                 cpu     %       wall     %      number of calls 
-                                                          (-1=no count)
- pspini                 0.396  30.4      0.395  30.3              1
- fourwf(pot)            0.288  22.1      0.280  21.5           1753
- timing timab           0.150  11.5      0.150  11.5              9
- invars2                0.109   8.4      0.109   8.4              1
- fourwf(den)            0.036   2.8      0.031   2.4            352
- nonlop(apply)          0.035   2.7      0.027   2.1           1753
- abinit(2)              0.030   2.3      0.031   2.4              1
- getghc-other           0.026   2.0      0.028   2.2             -1
- vtowfk(ssdiag)         0.016   1.2      0.021   1.6             -1
- forces                 0.016   1.2      0.022   1.7             22
- fourdp                 0.015   1.2      0.006   0.5             89
- projbd                 0.014   1.1      0.011   0.8           2738
- status                 0.014   1.1      0.012   0.9           1787
- xc:pot/=fourdp         0.008   0.6      0.014   1.1             23
- vtowfk(contrib)        0.008   0.6      0.015   1.2             88
- vtorho-kpt loop        0.008   0.6      0.013   1.0             22
- nonlop(forces)         0.007   0.5      0.004   0.3            352
- 53   others            0.017   1.3      0.024   1.8

- subtotal               1.193  91.7      1.193  91.6

================================================================================

 Calculation completed.
.Delivered    5 WARNINGs and   3 COMMENTs to log file.
+Overall time at end (sec) : cpu=          1.3  wall=          1.3
