
 Version 3.3.2  of ABINIT 
 (sequential version, prepared for a Compaq/DEC computer) 

 Copyright (C) 1998-2002 ABINIT group . 
 ABINIT comes with ABSOLUTELY NO WARRANTY.
 It is free software, and you are welcome to redistribute it
 under certain conditions (GNU General Public License,
 see ~abinit/COPYING or http://www.gnu.org/copyleft/gpl.txt).

 ABINIT is a project of the Universite Catholique de Louvain,
 Corning Inc. and other collaborators, see ~abinit/doc/developers/contributors.
 Please read ~abinit/doc/users/acknowledgments.htm for suggested
 acknowledgments of the ABINIT effort.
 For more information, see http://www.abinit.org .

 Starting date : Thu 18 Jul 2002.
  
- input  file    -> almd.in
- output file    -> almd.out
- root for input  files -> almdi
- root for output files -> almdo


 Symmetries : space group P1 (#  1); Bravais aP (primitive triclinic)
================================================================================
 Values of the parameters that define the memory need of the present run
   intxc =         0  ionmov =         6    iscf =         3     ixc =         1
  lmnmax =         3   lnmax =         3   mband =        64  mffmem =         1
   mgfft =        20   mkmem =         4 mpssoang=         3     mpw =       480
  mqgrid =      1201   natom =        32    nfft =      8000    nkpt =         4
  nloalg =         4  nspden =         1 nspinor =         1  nsppol =         1
    nsym =         1  n1xccc =         0   ntypat =         1  occopt =         7
================================================================================
 This job should need less than                       4.667 Mbytes of memory.
 Rough estimation (10% accuracy) of disk space for files :
 WF disk file :      1.877 Mbytes ; DEN or POT disk file :      0.063 Mbytes.
================================================================================

 -outvars: echo values of preprocessed input variables --------
     acell    1.5200000000E+01  1.5200000000E+01  1.5200000000E+01 Bohr
       amu    2.69815390E+01
     dtion    5.00000000E+01
      ecut    2.00000000E+00 Hartree
    enunit         2
    ionmov         6
      iscf         3
       kpt    2.50000000E-01  2.50000000E-01  2.50000000E-01
             -2.50000000E-01  2.50000000E-01  2.50000000E-01
              2.50000000E-01 -2.50000000E-01  2.50000000E-01
             -2.50000000E-01 -2.50000000E-01  2.50000000E-01
   kptrlen    3.04000000E+01
    kptopt         1
  kptrlatt    2  0  0   0  2  0   0  0  2
     mkmem         4
     natom        32
     nband        64
     ngfft        20      20      20
      nkpt         4
     nline         6
     nstep        30
      nsym         1
     ntime         1
     ntypat         1
       occ    2.000000  2.000000  2.000000  2.000000  2.000000  2.000000
              2.000000  2.000000  2.000000  2.000000  2.000000  2.000000
              2.000000  2.000000  2.000000  2.000000  2.000000  2.000000
              2.000000  2.000000  2.000000  2.000000  2.000000  2.000000
              2.000000  2.000000  2.000000  2.000000  2.000000  2.000000
              2.000000  2.000000  2.000000  2.000000  2.000000  2.000000
              2.000000  2.000000  2.000000  2.000000  2.000000  2.000000
              2.000000  2.000000  2.000000  2.000000  2.000000  2.000000
              0.000000  0.000000  0.000000  0.000000  0.000000  0.000000
              0.000000  0.000000  0.000000  0.000000  0.000000  0.000000
              0.000000  0.000000  0.000000  0.000000
              2.000000  2.000000  2.000000  2.000000  2.000000  2.000000
              2.000000  2.000000  2.000000  2.000000  2.000000  2.000000
              2.000000  2.000000  2.000000  2.000000  2.000000  2.000000
              2.000000  2.000000  2.000000  2.000000  2.000000  2.000000
              2.000000  2.000000  2.000000  2.000000  2.000000  2.000000
              2.000000  2.000000  2.000000  2.000000  2.000000  2.000000
              2.000000  2.000000  2.000000  2.000000  2.000000  2.000000
              2.000000  2.000000  2.000000  2.000000  2.000000  2.000000
              0.000000  0.000000  0.000000  0.000000  0.000000  0.000000
              0.000000  0.000000  0.000000  0.000000  0.000000  0.000000
              0.000000  0.000000  0.000000  0.000000
              2.000000  2.000000  2.000000  2.000000  2.000000  2.000000
              2.000000  2.000000  2.000000  2.000000  2.000000  2.000000
              2.000000  2.000000  2.000000  2.000000  2.000000  2.000000
              2.000000  2.000000  2.000000  2.000000  2.000000  2.000000
              2.000000  2.000000  2.000000  2.000000  2.000000  2.000000
              2.000000  2.000000  2.000000  2.000000  2.000000  2.000000
              2.000000  2.000000  2.000000  2.000000  2.000000  2.000000
              2.000000  2.000000  2.000000  2.000000  2.000000  2.000000
              0.000000  0.000000  0.000000  0.000000  0.000000  0.000000
              0.000000  0.000000  0.000000  0.000000  0.000000  0.000000
              0.000000  0.000000  0.000000  0.000000
              2.000000  2.000000  2.000000  2.000000  2.000000  2.000000
              2.000000  2.000000  2.000000  2.000000  2.000000  2.000000
              2.000000  2.000000  2.000000  2.000000  2.000000  2.000000
              2.000000  2.000000  2.000000  2.000000  2.000000  2.000000
              2.000000  2.000000  2.000000  2.000000  2.000000  2.000000
              2.000000  2.000000  2.000000  2.000000  2.000000  2.000000
              2.000000  2.000000  2.000000  2.000000  2.000000  2.000000
              2.000000  2.000000  2.000000  2.000000  2.000000  2.000000
              0.000000  0.000000  0.000000  0.000000  0.000000  0.000000
              0.000000  0.000000  0.000000  0.000000  0.000000  0.000000
              0.000000  0.000000  0.000000  0.000000
    occopt         7
    prtvol         1
    shiftk    5.00000000E-01  5.00000000E-01  5.00000000E-01
    timopt        -2
    toldff    1.00000000E-05
      type    1  1  1  1  1  1  1  1  1  1  1  1  1  1  1  1  1  1  1  1
              1  1  1  1  1  1  1  1  1  1  1  1
    useria         1
    userib         3
    useric         2
    userra    2.00000000E+00
       vel    6.3269548001E-04  3.4391235119E-03 -3.6213141014E-04
             -2.5022484810E-03 -2.4228390644E-03 -2.0420877464E-03
              1.8910648372E-03  1.1819032372E-03  7.8647595924E-04
             -2.1511836197E-05 -2.1981876847E-03  1.6177431973E-03
              6.3269548001E-04  3.4391235119E-03 -3.6213141014E-04
             -2.5022484810E-03 -2.4228390644E-03 -2.0420877464E-03
              1.8910648372E-03  1.1819032372E-03  7.8647595924E-04
             -2.1511836197E-05 -2.1981876847E-03  1.6177431973E-03
              6.3269548001E-04  3.4391235119E-03 -3.6213141014E-04
             -2.5022484810E-03 -2.4228390644E-03 -2.0420877464E-03
              1.8910648372E-03  1.1819032372E-03  7.8647595924E-04
             -2.1511836197E-05 -2.1981876847E-03  1.6177431973E-03
              6.3269548001E-04  3.4391235119E-03 -3.6213141014E-04
             -2.5022484810E-03 -2.4228390644E-03 -2.0420877464E-03
              1.8910648372E-03  1.1819032372E-03  7.8647595924E-04
             -2.1511836197E-05 -2.1981876847E-03  1.6177431973E-03
              6.3269548001E-04  3.4391235119E-03 -3.6213141014E-04
             -2.5022484810E-03 -2.4228390644E-03 -2.0420877464E-03
              1.8910648372E-03  1.1819032372E-03  7.8647595924E-04
             -2.1511836197E-05 -2.1981876847E-03  1.6177431973E-03
              6.3269548001E-04  3.4391235119E-03 -3.6213141014E-04
             -2.5022484810E-03 -2.4228390644E-03 -2.0420877464E-03
              1.8910648372E-03  1.1819032372E-03  7.8647595924E-04
             -2.1511836197E-05 -2.1981876847E-03  1.6177431973E-03
              6.3269548001E-04  3.4391235119E-03 -3.6213141014E-04
             -2.5022484810E-03 -2.4228390644E-03 -2.0420877464E-03
              6.3269548001E-04  3.4391235119E-03 -3.6213141014E-04
             -2.5022484810E-03 -2.4228390644E-03 -2.0420877464E-03
              1.8910648372E-03  1.1819032372E-03  7.8647595924E-04
             -2.1511836197E-05 -2.1981876847E-03  1.6177431973E-03
              1.8910648372E-03  1.1819032372E-03  7.8647595924E-04
             -2.1511836197E-05 -2.1981876847E-03  1.6177431973E-03
       wtk      0.25000    0.25000    0.25000    0.25000
    xangst    3.1454890308E-02  1.2367780069E-02  1.4467323241E-02
              2.0492038581E+00  2.0299416027E+00  2.3053165044E-02
              2.0421109972E+00  2.1901464932E-02  2.0292864370E+00
              1.1488644061E-02  2.0224734131E+00  2.0403883731E+00
              2.2612360711E-02  6.7410417377E-03  4.0277774031E+00
              2.0351730927E+00  2.0117215105E+00  4.0416669885E+00
              2.0450497830E+00  2.1631550874E-02  6.0520603548E+00
              1.8343618043E-02  2.0308804960E+00  6.0503345773E+00
              2.0725090976E-02  4.0407828245E+00  2.3512981157E-02
              2.0431796529E+00  6.0388921461E+00  1.3165519722E-02
              2.0369002089E+00  4.0223849120E+00  2.0371188984E+00
              2.2923448181E-02  6.0586894815E+00  2.0477760281E+00
              5.4891690105E-03  4.0528220874E+00  4.0481062527E+00
              2.0166824186E+00  6.0438261782E+00  4.0522557061E+00
              2.0431388606E+00  4.0276109511E+00  6.0436575700E+00
              1.0407509990E-02  6.0605541749E+00  6.0698689162E+00
              4.0314151115E+00  2.9760546031E-03  3.7636664859E-02
              6.0634764731E+00  2.0332920675E+00  1.7897462077E-02
              6.0494887772E+00  3.2766120611E-02  2.0469595859E+00
              4.0509459381E+00  2.0305318752E+00  2.0214743550E+00
              4.0439818759E+00  2.4819450725E-02  4.0263099408E+00
              6.0525562839E+00  2.0412897319E+00  4.0346107080E+00
              6.0459867575E+00  1.1703605900E-02  6.0423111981E+00
              4.0590838428E+00  2.0187104333E+00  6.0727676841E+00
              4.0377057196E+00  4.0275062857E+00  4.2906726762E-03
              6.0686106917E+00  6.0652165052E+00  2.6493077052E-02
              6.0695790723E+00  4.0369011792E+00  2.0468685255E+00
              4.0439073725E+00  6.0631046827E+00  2.0335485791E+00
              4.0294266330E+00  4.0456441637E+00  4.0328480552E+00
              6.0657658069E+00  6.0572326580E+00  4.0539903446E+00
              6.0504882369E+00  4.0506086929E+00  6.0510991320E+00
              4.0517557689E+00  6.0381871089E+00  6.0372736371E+00
     xcart    5.9441128254E-02  2.3371717215E-02  2.7339278817E-02
              3.8724340844E+00  3.8360336969E+00  4.3564168453E-02
              3.8590305197E+00  4.1387770653E-02  3.8347956132E+00
              2.1710390925E-02  3.8219208639E+00  3.8557752321E+00
              4.2731168985E-02  1.2738722742E-02  7.6113962202E+00
              3.8459197803E+00  3.8016027125E+00  7.6376437328E+00
              3.8645840201E+00  4.0877707005E-02  1.1436736616E+01
              3.4664414406E-02  3.8378079481E+00  1.1433475370E+01
              3.9164746046E-02  7.6359729049E+00  4.4433094978E-02
              3.8610499864E+00  1.1411852308E+01  2.4879226685E-02
              3.8491835570E+00  7.6012058889E+00  3.8495968201E+00
              4.3319039106E-02  1.1449263850E+01  3.8697358768E+00
              1.0373026133E-02  7.6587238147E+00  7.6498121786E+00
              3.8109774702E+00  1.1421176278E+01  7.6576535091E+00
              3.8609729002E+00  7.6110816716E+00  1.1420857654E+01
              1.9667343617E-02  1.1452787610E+01  1.1470389920E+01
              7.6182704930E+00  5.6239281595E-03  7.1122989178E-02
              1.1458309954E+01  3.8423651578E+00  3.3821301818E-02
              1.1431877039E+01  6.1918994427E-02  3.8681930246E+00
              7.6551784062E+00  3.8371491503E+00  3.8200329176E+00
              7.6420182359E+00  4.6901964664E-02  7.6086231183E+00
              1.1437673787E+01  3.8574785533E+00  7.6243092952E+00
              1.1425259181E+01  2.2116609931E-02  1.1418313380E+01
              7.6705568175E+00  3.8148098626E+00  1.1475867798E+01
              7.6301580194E+00  7.6108838825E+00  8.1081962884E-03
              1.1468012221E+01  1.1461598138E+01  5.0064660072E-02
              1.1469842195E+01  7.6286376585E+00  3.8680209453E+00
              7.6418774450E+00  1.1457607372E+01  3.8428498945E+00
              7.6145128132E+00  7.6451595047E+00  7.6209783641E+00
              1.1462636168E+01  1.1446510853E+01  7.6609315009E+00
              1.1433765744E+01  7.6545411053E+00  1.1434920169E+01
              7.6567087648E+00  1.1410519981E+01  1.1408793770E+01
      xred    3.9106005430E-03  1.5376129746E-03  1.7986367643E-03
              2.5476540029E-01  2.5237063795E-01  2.8660637140E-03
              2.5388358682E-01  2.7228796482E-03  2.5228918508E-01
              1.4283151925E-03  2.5144216210E-01  2.5366942316E-01
              2.8112611175E-03  8.3807386458E-04  5.0074975133E-01
              2.5302103817E-01  2.5010544161E-01  5.0247656137E-01
              2.5424894869E-01  2.6893228292E-03  7.5241688266E-01
              2.2805535793E-03  2.5248736501E-01  7.5220232695E-01
              2.5766280294E-03  5.0236663848E-01  2.9232299328E-03
              2.5401644647E-01  7.5077975713E-01  1.6367912293E-03
              2.5323576033E-01  5.0007933480E-01  2.5326294869E-01
              2.8499367833E-03  7.5324104279E-01  2.5458788663E-01
              6.8243592978E-04  5.0386340886E-01  5.0327711701E-01
              2.5072220199E-01  7.5139317617E-01  5.0379299402E-01
              2.5401137501E-01  5.0072905734E-01  7.5137221411E-01
              1.2939041853E-03  7.5347286910E-01  7.5463091582E-01
              5.0120200612E-01  3.6999527365E-04  4.6791440249E-03
              7.5383618116E-01  2.5278718144E-01  2.2250856459E-03
              7.5209717363E-01  4.0736180544E-03  2.5448638320E-01
              5.0363015831E-01  2.5244402304E-01  2.5131795511E-01
              5.0276435763E-01  3.0856555700E-03  5.0056731042E-01
              7.5247853860E-01  2.5378148377E-01  5.0159929574E-01
              7.5166178823E-01  1.4550401270E-03  7.5120482765E-01
              5.0464189589E-01  2.5097433306E-01  7.5499130249E-01
              5.0198408022E-01  5.0071604490E-01  5.3343396634E-04
              7.5447448820E-01  7.5405250907E-01  3.2937276363E-03
              7.5459488124E-01  5.0188405648E-01  2.5447506219E-01
              5.0275509507E-01  7.5378995866E-01  2.5281907201E-01
              5.0095479034E-01  5.0297102004E-01  5.0138015553E-01
              7.5412080049E-01  7.5305992454E-01  5.0400865138E-01
              7.5222143054E-01  5.0358823061E-01  7.5229737952E-01
              5.0373083979E-01  7.5069210403E-01  7.5057853747E-01
    zatnum    13.000

================================================================================

 chkinp: Checking input parameters for consistency.

================================================================================
== DATASET  1 ==================================================================

 Real(R)+Recip(G) space primitive vectors, cartesian coordinates (Bohr,Bohr^-1):
 R(1)= 15.2000000  0.0000000  0.0000000  G(1)=  0.0657895  0.0000000  0.0000000
 R(2)=  0.0000000 15.2000000  0.0000000  G(2)=  0.0000000  0.0657895  0.0000000
 R(3)=  0.0000000  0.0000000 15.2000000  G(3)=  0.0000000  0.0000000  0.0657895
 Unit cell volume ucvol=  3.5118080E+03 bohr^3

 getcut: wavevector=  0.0000  0.0000  0.0000  ngfft=  20  20  20
         ecut(hartree)=      2.000   => boxcut(ratio)=   2.06684
--- Pseudopotential description ------------------------------------------------
- pspini: atom type   1  psp file is 13al.981214.fhi
- pspatm: opening atomic psp file    13al.981214.fhi
 Aluminum, fhi98PP : Hamann-type, LDA CA PerdewWang, l=2 local
  13.00000   3.00000    981214                zatom, zion, pspdat
    6    7    2    2       493   0.00000      pspcod,pspxc,lmax,lloc,mmax,r2well
  No XC core correction.
  1.024700          amesh (Hamman grid)
 pspatm: epsatm=    1.36305739
         --- l  ekb(1:nproj) -->
             0    1.768744
             1    0.900554
 pspatm: atomic psp has been read  and splines computed

   4.18731229E+03                                ecore*ucvol(ha*bohr**3)
--------------------------------------------------------------------------------

 newkpt: treating     64 bands with npw=     480 for ikpt=   1
 newkpt: treating     64 bands with npw=     480 for ikpt=   2
 newkpt: treating     64 bands with npw=     480 for ikpt=   3
 newkpt: treating     64 bands with npw=     480 for ikpt=   4
 
 setup2: Arith. and geom. avg. npw (full set) are     480.000     480.000

================================================================================

 MOLDYN STEP NUMBER   0  ------------------------------------------------------

     iter   Etot(hartree)      deltaE(h)  residm     vres2    diffor    maxfor
 ETOT  1  -66.084494332891    -6.608E+01 6.713E-04 8.621E-01 9.203E-04 9.203E-04
 ETOT  2  -66.091752064699    -7.258E-03 4.552E-05 5.220E-02 8.538E-04 1.391E-03
 ETOT  3  -66.092119545374    -3.675E-04 1.175E-05 2.229E-03 1.130E-04 1.380E-03
 ETOT  4  -66.092127609116    -8.064E-06 2.344E-05 1.340E-04 4.974E-05 1.374E-03
 ETOT  5  -66.092128804305    -1.195E-06 6.663E-06 1.697E-06 9.732E-06 1.377E-03
 ETOT  6  -66.092129328198    -5.239E-07 7.276E-06 4.747E-08 1.851E-06 1.376E-03

 At SCF step    6, forces are converged :
  for the second time, max diff in force=  1.851E-06 < toldff=  1.000E-05

 Cartesian components of stress tensor (hartree/bohr^3)
  sigma(1 1)=  3.28355320E-04  sigma(3 2)= -1.72030261E-07
  sigma(2 2)=  3.28407637E-04  sigma(3 1)=  4.48425318E-08
  sigma(3 3)=  3.28414722E-04  sigma(2 1)=  1.56281737E-08
 
 Cartesian coordinates (bohr)
  5.94411282539040E-02  2.33717172145280E-02  2.73392788172080E-02
  3.87243408440800E+00  3.83603369688560E+00  4.35641684532560E-02
  3.85903051972480E+00  4.13877706527920E-02  3.83479561317040E+00
  2.17103909253920E-02  3.82192086387440E+00  3.85577523207760E+00
  4.27311689853920E-02  1.27387227416008E-02  7.61139622020080E+00
  3.84591978026000E+00  3.80160271251760E+00  7.63764373279360E+00
  3.86458402013360E+00  4.08777070046000E-02  1.14367366164928E+01
  3.46644144058160E-02  3.83780794810640E+00  1.14334753696856E+01
  3.91647460461200E-02  7.63597290492640E+00  4.44330949784080E-02
  3.86104998635920E+00  1.14118523083304E+01  2.48792266846000E-02
  3.84918355703120E+00  7.60120588891440E+00  3.84959682011840E+00
  4.33190391063120E-02  1.14492638504536E+01  3.86973587679120E+00
  1.03730261325800E-02  7.65872381473280E+00  7.64981217861280E+00
  3.81097747021760E+00  1.14211762777536E+01  7.65765350913440E+00
  3.86097290015200E+00  7.61108167159840E+00  1.14208576544568E+01
  1.96673436165600E-02  1.14527876102896E+01  1.14703899204792E+01
  7.61827049297840E+00  5.62392815948000E-03  7.11229891777200E-02
  1.14583099536928E+01  3.84236515784240E+00  3.38213018178320E-02
  1.14318770391912E+01  6.19189944267280E-02  3.86819302464000E+00
  7.65517840623600E+00  3.83714915025360E+00  3.82003291761120E+00
  7.64201823591520E+00  4.69019646644560E-02  7.60862311830800E+00
  1.14376737867656E+01  3.85747855328880E+00  7.62430929517200E+00
  1.14252591810200E+01  2.21166099310080E-02  1.14183133802952E+01
  7.67055681752800E+00  3.81480986255760E+00  1.14758677978480E+01
  7.63015801942000E+00  7.61088388252560E+00  8.10819628835280E-03
  1.14680122206248E+01  1.14615981378488E+01  5.00646600723680E-02
  1.14698421948024E+01  7.62863765848080E+00  3.86802094530320E+00
  7.64187744498800E+00  1.14576073715712E+01  3.84284989452160E+00
  7.61451281315280E+00  7.64515950465360E+00  7.62097836411680E+00
  1.14626361675240E+01  1.14465108530536E+01  7.66093150091520E+00
  1.14337657442080E+01  7.65454110527200E+00  1.14349201687648E+01
  7.65670876479280E+00  1.14105199812104E+01  1.14087937695744E+01
 Velocities (bohr/(atomic time unit))
  6.32695480013759E-04  3.43912351194327E-03 -3.62131410135049E-04
 -2.50224848098954E-03 -2.42283906441236E-03 -2.04208774639310E-03
  1.89106483717239E-03  1.18190323717619E-03  7.86475959235376E-04
 -2.15118361966065E-05 -2.19818768470709E-03  1.61774319729277E-03
  6.32695480013759E-04  3.43912351194327E-03 -3.62131410135049E-04
 -2.50224848098954E-03 -2.42283906441236E-03 -2.04208774639310E-03
  1.89106483717239E-03  1.18190323717619E-03  7.86475959235376E-04
 -2.15118361966065E-05 -2.19818768470709E-03  1.61774319729277E-03
  6.32695480013759E-04  3.43912351194327E-03 -3.62131410135049E-04
 -2.50224848098954E-03 -2.42283906441236E-03 -2.04208774639310E-03
  1.89106483717239E-03  1.18190323717619E-03  7.86475959235376E-04
 -2.15118361966065E-05 -2.19818768470709E-03  1.61774319729277E-03
  6.32695480013759E-04  3.43912351194327E-03 -3.62131410135049E-04
 -2.50224848098954E-03 -2.42283906441236E-03 -2.04208774639310E-03
  1.89106483717239E-03  1.18190323717619E-03  7.86475959235376E-04
 -2.15118361966065E-05 -2.19818768470709E-03  1.61774319729277E-03
  6.32695480013759E-04  3.43912351194327E-03 -3.62131410135049E-04
 -2.50224848098954E-03 -2.42283906441236E-03 -2.04208774639310E-03
  1.89106483717239E-03  1.18190323717619E-03  7.86475959235376E-04
 -2.15118361966065E-05 -2.19818768470709E-03  1.61774319729277E-03
  6.32695480013759E-04  3.43912351194327E-03 -3.62131410135049E-04
 -2.50224848098954E-03 -2.42283906441236E-03 -2.04208774639310E-03
  1.89106483717239E-03  1.18190323717619E-03  7.86475959235376E-04
 -2.15118361966065E-05 -2.19818768470709E-03  1.61774319729277E-03
  6.32695480013759E-04  3.43912351194327E-03 -3.62131410135049E-04
 -2.50224848098954E-03 -2.42283906441236E-03 -2.04208774639310E-03
  6.32695480013759E-04  3.43912351194327E-03 -3.62131410135049E-04
 -2.50224848098954E-03 -2.42283906441236E-03 -2.04208774639310E-03
  1.89106483717239E-03  1.18190323717619E-03  7.86475959235376E-04
 -2.15118361966065E-05 -2.19818768470709E-03  1.61774319729277E-03
  1.89106483717239E-03  1.18190323717619E-03  7.86475959235376E-04
 -2.15118361966065E-05 -2.19818768470709E-03  1.61774319729277E-03
 Cartesian forces (hart/bohr); max,rms= 1.37610E-03 6.85424E-04 (free atoms)
 -2.99531143015980E-05  7.36382275259795E-04  4.31607062868362E-04
 -1.34924176816524E-03 -3.50531114339429E-04 -4.63383360249222E-05
 -9.41403020888505E-04 -5.03395135057900E-04 -1.82007058439179E-04
  1.15645407540600E-03  2.98644508415403E-04 -5.91611655492636E-04
  1.98903839472784E-04  1.00744164749790E-03  1.25293287406999E-03
 -3.52512484966258E-04  6.09377695091961E-04  2.77914173724571E-04
 -6.18437624307941E-04 -4.35588158151084E-04 -1.35866760431015E-04
  5.35280988102460E-04 -2.10043774407318E-04 -1.23105626455836E-04
  4.76740927827885E-04 -9.47329250410604E-05  2.07979288650572E-04
 -4.82587905057258E-04 -1.64388270475018E-04  5.37489310063619E-04
 -5.76819564692145E-04  8.95760092664438E-04 -4.00112412660862E-04
  5.16571651141521E-04 -4.88194014918005E-04 -1.20354026475804E-03
  1.17590567153914E-03 -7.85079699848592E-04  2.76695167130852E-04
  5.66788623252589E-04  1.95560599964637E-04 -2.06042736893737E-04
 -1.06873312241974E-03  1.34401864389163E-04  9.38510498099988E-05
  1.22374706469294E-03 -4.78188751930969E-04 -3.51828591136238E-04
  1.27472332021014E-03  2.34729102047967E-04 -1.14585591398614E-03
 -2.23071844261284E-05 -4.13697288388809E-04  1.78319049742680E-04
  2.88735947165462E-04 -5.43214539885917E-04 -1.20413766391829E-03
  9.18054520513860E-05  3.95956181665874E-04  2.52803061911757E-04
 -1.17173843409012E-05 -2.33707664882063E-04  1.09525868126469E-03
 -3.50327088175694E-04 -2.57875286131111E-04  1.11199971464418E-03
  2.13253883951912E-04  8.15711844044392E-04  5.55489297531944E-04
 -1.84631283586615E-04 -4.35020209323125E-05 -1.37610482558101E-03
  1.09270361951679E-03  1.01820706124928E-03  1.08023755628298E-03
 -1.05769820739736E-03 -6.11237569644418E-04  6.53172391317840E-04
 -1.22820601018101E-03  9.79957739048824E-04 -1.28013407403250E-03
  3.56838642334249E-04 -1.31849546050175E-03 -1.16866979468265E-04
  6.48996440374545E-04 -4.30755019498705E-04  1.06304092282191E-04
 -1.20340223496195E-03 -1.30097096743299E-04 -5.96144196236271E-04
  1.57981475170754E-05 -4.71178320409854E-04  3.12590348826155E-04
 -3.55270296688540E-04  6.41771499847970E-04  5.35053975392542E-04
 
 At the end of Moldyn step     0, POT.En.= -6.60921293281982E+01 Ha.
                              KIN+POT.En.= -5.78878508585659E+01 Ha.

 MOLDYN STEP NUMBER   1  ------------------------------------------------------

     iter   Etot(hartree)      deltaE(h)  residm     vres2    diffor    maxfor
 ETOT  1  -66.058217990796    -6.606E+01 1.001E-04 1.598E+00 8.879E-03 9.420E-03
 ETOT  2  -66.068582350763    -1.036E-02 1.200E-05 3.737E-02 3.594E-03 1.272E-02
 ETOT  3  -66.068693407346    -1.111E-04 2.504E-06 1.874E-03 2.396E-04 1.269E-02
 ETOT  4  -66.068699081868    -5.675E-06 6.246E-06 9.658E-06 3.259E-05 1.268E-02
 ETOT  5  -66.068699369913    -2.880E-07 1.823E-06 2.195E-07 2.793E-06 1.268E-02
 ETOT  6  -66.068699560721    -1.908E-07 5.391E-06 2.865E-08 1.234E-06 1.268E-02

 At SCF step    6, forces are converged :
  for the second time, max diff in force=  1.234E-06 < toldff=  1.000E-05

 Cartesian components of stress tensor (hartree/bohr^3)
  sigma(1 1)=  2.95237517E-04  sigma(3 2)=  1.35292270E-06
  sigma(2 2)=  2.98878711E-04  sigma(3 1)= -7.77051029E-06
  sigma(3 3)=  3.02565185E-04  sigma(2 1)= -1.94314042E-05
 
 Cartesian coordinates (bohr)
  9.10752826927999E-02  1.95346717585499E-01  9.24380717966421E-03
  3.74728751160981E+00  3.71488294497511E+00 -5.85412667859714E-02
  3.95355997789132E+00  1.00470248844542E-01  3.87411491524695E+00
  2.06643316120913E-02  3.71201917948476E+00  3.93664748612205E+00
  7.43711397310984E-02  1.84720611976759E-01  7.59332162222617E+00
  3.72079853893294E+00  3.68047635630081E+00  7.53554653830061E+00
  3.95912168633490E+00  9.99619084832111E-02  1.14760570912063E+01
  3.36025682300294E-02  3.72789333561003E+00  1.15143595306211E+01
  7.08117779089240E-02  7.80792678284110E+00  2.63319399315347E-02
  3.73592543921801E+00  1.12907062871649E+01 -7.72113708114079E-02
  3.94372228093863E+00  7.66032392606971E+00  3.88891057913569E+00
  4.22567174403024E-02  1.13393421688815E+01  3.95059257891783E+00
  4.20378269842368E-02  7.83066014776375E+00  7.63171276995216E+00
  3.68587959255596E+00  1.13000394045429E+01  7.55554401507249E+00
  3.95549912227555E+00  7.67018035914263E+00  1.14601839673555E+01
  1.86229945273335E-02  1.13428661829972E+01  1.15512682685131E+01
  7.64993780524058E+00  1.77586179218186E-01  5.29874269573721E-02
  1.13331971043997E+01  3.72121280058917E+00 -6.82784238449053E-02
  1.15264377608415E+01  1.21000460624428E-01  3.90748634968110E+00
  7.65410528930904E+00  3.72724993900073E+00  3.90092663211377E+00
  7.67365285380779E+00  2.18852310592412E-01  7.59054451310761E+00
  1.13125526009795E+01  3.73633015618867E+00  7.52223329862529E+00
  1.15198179843242E+01  8.12326126924934E-02  1.14576514255430E+01
  7.66947667507334E+00  3.70489948265246E+00  1.15567201143162E+01
  7.66182070572520E+00  7.78286604535939E+00 -9.97079066784694E-03
  1.13428730572881E+01  1.13404407601893E+01 -5.20229973849727E-02
  1.15014458961292E+01  7.80061884922356E+00  3.84988197045779E+00
  7.51677423153261E+00  1.13364320192388E+01  3.74074266682546E+00
  7.70908269067764E+00  7.70424382896447E+00  7.66030499350451E+00
  1.14615301334181E+01  1.13365982723697E+01  7.74180363976696E+00
  1.15283195292546E+01  7.71362440224105E+00  1.14742520408342E+01
  7.65562428561672E+00  1.13006270172543E+01  1.14896946573696E+01
 Velocities (bohr/(atomic time unit))
  6.31532133067494E-04  3.43455529387421E-03 -3.59718636454715E-04
 -2.50177119089520E-03 -2.41822966161245E-03 -2.03947857692365E-03
  1.88954560946472E-03  1.17747106444926E-03  7.84065088725860E-04
 -2.10656844042894E-05 -2.19285440933694E-03  1.61430351008705E-03
  6.31883862390049E-04  3.43458634829683E-03 -3.58736447744290E-04
 -2.50070960559852E-03 -2.41728584111396E-03 -2.03901964343514E-03
  1.89009179825415E-03  1.17727243476458E-03  7.84139343402597E-04
 -2.13244230587159E-05 -2.19387673761439E-03  1.61504619450383E-03
  6.32064484312610E-04  3.43360458061280E-03 -3.59792035287016E-04
 -2.50106893336545E-03 -2.41807525099622E-03 -2.03922027151184E-03
  1.88975859284108E-03  1.17823687404832E-03  7.84375372748389E-04
 -2.17509950510165E-05 -2.19378379524498E-03  1.61395775338926E-03
  6.32993429103783E-04  3.43228027431937E-03 -3.60096847759905E-04
 -2.49869734138105E-03 -2.41810664895226E-03 -2.03973408047970E-03
  1.88950939429793E-03  1.17798596041977E-03  7.84367411207221E-04
 -2.03901054048583E-05 -2.19402839901090E-03  1.61511661119864E-03
  6.33221786264704E-04  3.43418492596557E-03 -3.61156959170190E-04
 -2.50039742026065E-03 -2.41864134660390E-03 -2.03896358938021E-03
  1.89074354808362E-03  1.17697023048987E-03  7.83270521514141E-04
 -2.19915262122949E-05 -2.19307175650377E-03  1.61519033374741E-03
  6.31954667476533E-04  3.43298028377303E-03 -3.59084956465114E-04
 -2.50035790308552E-03 -2.41804068920077E-03 -2.03843113156647E-03
  1.89097245674215E-03  1.17884368782991E-03  7.85074707909246E-04
 -2.22737750996149E-05 -2.19377441651254E-03  1.61376734938706E-03
  6.32906127758552E-04  3.43426618436784E-03 -3.59606433259147E-04
 -2.50174553424653E-03 -2.41847083393207E-03 -2.03888412554299E-03
  6.31447645376255E-04  3.43550671175313E-03 -3.63850832760431E-04
 -2.50054880622805E-03 -2.41947769223854E-03 -2.04118147121477E-03
  1.89073290113670E-03  1.17909209080144E-03  7.86951080318126E-04
 -2.36428835193969E-05 -2.19370545670589E-03  1.61685250112393E-03
  1.89090750177625E-03  1.17673146267026E-03  7.85379607674095E-04
 -2.23619321020685E-05 -2.19305500898411E-03  1.61525472886934E-03
 Cartesian forces (hart/bohr); max,rms= 1.26837E-02 6.14337E-03 (free atoms)
 -2.26910603616283E-03 -9.72933504786844E-03  4.30562418470636E-03
  2.27792839859793E-03  9.41338611976091E-03  5.16995344791108E-03
 -2.05780649661357E-03 -8.22190564126705E-03 -4.57067128225176E-03
 -2.89028114124523E-04  1.01883381844126E-02 -6.18513335464168E-03
 -1.80598005354930E-03 -9.93929877303728E-03  5.41663038089029E-03
  3.36973385992568E-03  1.03103247156593E-02  5.74859450606849E-03
 -1.30621456147256E-03 -8.68049138937323E-03 -4.47072489956920E-03
 -1.76890590152263E-04  8.68572494070842E-03 -5.19250176852356E-03
 -1.72846636409078E-03 -1.07686278918485E-02  4.38484904382431E-03
  2.79287736577725E-03  9.53102662516199E-03  5.09430901513599E-03
 -2.00337210945893E-03 -8.11442738387795E-03 -3.74212137518831E-03
 -9.97407672155449E-04  9.14672753264519E-03 -6.25343729824120E-03
 -6.00049774328063E-04 -1.26836861794776E-02  3.71645319403330E-03
  6.40930797960881E-03  9.10930624909274E-03  4.82698693217187E-03
 -2.00172515328998E-03 -7.84670997060581E-03 -4.25174816254571E-03
  9.72795094213601E-04  8.65549531093203E-03 -4.82524286690020E-03
 -2.49603603880386E-04 -9.95633387074752E-03  3.05336921568025E-03
  3.65371370950927E-03  8.66661416531306E-03  5.95846889040100E-03
 -9.31152812080258E-04 -9.16741367898502E-03 -5.11175112599440E-03
 -1.04585609748886E-03  9.66342346225890E-03 -5.28483473364976E-03
 -1.45605878140010E-03 -1.18578781893691E-02  4.88865776372134E-03
  4.05947865514417E-03  9.69250960009044E-03  6.07233159996629E-03
 -4.05321927986906E-04 -6.84054980255452E-03 -3.32186964614601E-03
 -1.32470833361531E-03  8.72048700800348E-03 -6.45546851918898E-03
 -6.88602072500524E-04 -1.05799462054988E-02  3.87773928104443E-03
  2.03686104766487E-03  9.19961655269422E-03  5.63995059367872E-03
 -1.23707198229954E-03 -8.10111622171610E-03 -2.11220804631171E-03
  2.97673514741412E-03  7.92600812739324E-03  1.89025304770186E-03
 -1.31235982610545E-03 -5.10538152402205E-03  8.18840848511088E-04
 -2.99948495932779E-03  8.94275177762350E-03 -1.16578348299896E-03
 -3.35656867866567E-04 -9.70919537135056E-03 -2.47911899033126E-03
 -1.32750706790577E-03  9.45055676984939E-03 -5.44039639296399E-03
 
 At the end of Moldyn step     1, POT.En.= -6.60686995607210E+01 Ha.
                              KIN+POT.En.= -5.78886501576650E+01 Ha.
================================================================================

 ----iterations are completed or convergence reached----

 Mean square residual over all n,k,spin=   4.3887E-08; max=  5.3908E-06
   0.2500  0.2500  0.2500    1  2.83413E-06 kpt; spin; max resid(k); each band:
 9.35E-13 7.97E-13 1.31E-12 6.44E-13 7.86E-13 1.21E-12 7.67E-13 1.00E-12
 8.24E-13 9.68E-13 8.41E-13 9.36E-13 9.41E-13 7.69E-13 9.03E-13 8.81E-13
 7.84E-13 7.50E-13 7.44E-13 8.57E-13 7.44E-13 7.49E-13 6.52E-13 6.93E-13
 9.62E-13 4.51E-13 7.64E-13 8.36E-13 9.65E-13 4.73E-13 7.10E-13 6.57E-13
 5.33E-13 5.02E-13 5.93E-13 5.42E-13 5.50E-13 4.94E-13 5.41E-13 4.76E-13
 6.86E-13 5.28E-13 4.75E-13 5.40E-13 5.19E-13 5.21E-13 4.44E-13 4.70E-13
 6.19E-13 4.32E-13 4.82E-13 7.00E-13 5.04E-13 6.25E-13 4.46E-13 5.24E-13
 4.03E-13 4.72E-13 3.06E-13 3.61E-13 5.42E-11 9.72E-10 5.49E-07 2.83E-06
  -0.2500  0.2500  0.2500    1  5.39081E-06 kpt; spin; max resid(k); each band:
 9.53E-13 8.67E-13 1.08E-12 7.97E-13 9.97E-13 1.00E-12 7.61E-13 9.25E-13
 9.60E-13 9.21E-13 8.08E-13 1.08E-12 9.06E-13 8.53E-13 7.90E-13 8.21E-13
 7.89E-13 8.32E-13 6.84E-13 8.78E-13 8.08E-13 7.54E-13 7.06E-13 6.02E-13
 7.58E-13 5.61E-13 9.26E-13 7.82E-13 7.69E-13 6.67E-13 6.34E-13 7.25E-13
 5.98E-13 4.99E-13 4.87E-13 5.83E-13 5.30E-13 4.91E-13 6.20E-13 6.32E-13
 6.70E-13 5.26E-13 5.55E-13 4.60E-13 5.06E-13 5.57E-13 5.52E-13 4.73E-13
 5.01E-13 4.74E-13 4.60E-13 6.10E-13 5.05E-13 5.44E-13 5.00E-13 5.85E-13
 4.57E-13 3.71E-13 3.95E-13 3.84E-13 7.63E-10 1.52E-08 3.25E-07 5.39E-06
   0.2500 -0.2500  0.2500    1  1.15533E-06 kpt; spin; max resid(k); each band:
 9.48E-13 1.01E-12 1.01E-12 7.33E-13 1.22E-12 7.04E-13 8.44E-13 9.29E-13
 1.17E-12 6.73E-13 8.43E-13 8.07E-13 1.15E-12 6.35E-13 9.65E-13 1.05E-12
 6.24E-13 7.18E-13 7.85E-13 8.58E-13 6.62E-13 8.91E-13 7.06E-13 6.52E-13
 7.90E-13 5.41E-13 6.83E-13 8.89E-13 7.61E-13 6.52E-13 8.68E-13 6.78E-13
 4.97E-13 4.90E-13 5.70E-13 6.59E-13 3.47E-13 4.82E-13 6.07E-13 5.33E-13
 4.37E-13 7.30E-13 4.63E-13 6.16E-13 4.86E-13 5.01E-13 4.83E-13 4.36E-13
 5.71E-13 4.90E-13 5.33E-13 5.70E-13 5.98E-13 5.54E-13 4.77E-13 5.21E-13
 4.72E-13 3.61E-13 4.68E-13 3.91E-13 7.44E-11 5.33E-10 3.23E-09 1.16E-06
  -0.2500 -0.2500  0.2500    1  9.14829E-07 kpt; spin; max resid(k); each band:
 9.17E-13 9.02E-13 1.05E-12 8.17E-13 9.61E-13 1.01E-12 8.07E-13 9.28E-13
 9.84E-13 8.50E-13 8.69E-13 9.59E-13 8.89E-13 9.34E-13 7.39E-13 8.27E-13
 8.65E-13 8.00E-13 7.43E-13 7.94E-13 7.63E-13 7.94E-13 5.44E-13 8.02E-13
 6.31E-13 6.24E-13 8.55E-13 7.51E-13 8.18E-13 5.19E-13 6.28E-13 7.01E-13
 6.35E-13 6.18E-13 4.82E-13 5.45E-13 4.83E-13 4.89E-13 5.87E-13 5.79E-13
 7.32E-13 5.69E-13 4.75E-13 4.97E-13 5.17E-13 4.85E-13 5.30E-13 5.08E-13
 5.44E-13 4.59E-13 5.25E-13 5.62E-13 5.64E-13 5.37E-13 5.11E-13 4.47E-13
 4.89E-13 4.39E-13 3.79E-13 3.42E-13 2.72E-11 5.02E-10 4.42E-08 9.15E-07
 reduced coordinates (array xred) for   32 atoms
       0.005991794914      0.012851757736      0.000608145209
       0.246532073132      0.244400193748     -0.003851399131
       0.260102630124      0.006609884792      0.254875981266
       0.001359495501      0.244211788124      0.258989966192
       0.004892838140      0.012152671841      0.499560633041
       0.244789377561      0.242136602388      0.495759640678
       0.260468531996      0.006576441348      0.755003756000
       0.002210695278      0.245256140501      0.757523653330
       0.004658669599      0.513679393608      0.001732364469
       0.245784568370      0.742809624156     -0.005079695448
       0.259455413220      0.503968679347      0.255849380206
       0.002780047200      0.746009353216      0.259907406508
       0.002765646512      0.515175009721      0.502086366444
       0.242492078458      0.743423645036      0.497075264150
       0.260230205413      0.504617128891      0.753959471537
       0.001225197008      0.746241196250      0.759951859771
       0.503285381924      0.011683301264      0.003486014931
       0.745605072658      0.244816631618     -0.004492001569
       0.758318273740      0.007960556620      0.257071470374
       0.503559558507      0.245213811776      0.256639910007
       0.504845582487      0.014398178328      0.499377928494
       0.744246881643      0.245811194486      0.494883769646
       0.757882762127      0.005344250835      0.753792856944
       0.504570833886      0.243743387017      0.760310533837
       0.504067151692      0.512030660879     -0.000655973070
       0.746241648506      0.746081628960     -0.003422565617
       0.756674072114      0.513198608502      0.253281708583
       0.494524620496      0.745817896003      0.246101491239
       0.507176492808      0.506858146642      0.503967433783
       0.754048035093      0.745828833709      0.509329186827
       0.758442074293      0.507475289621      0.754885002686
       0.503659492475      0.743462303767      0.755900964301
 rms dE/dt=  9.3379E-02; max dE/dt=  1.9279E-01; dE/dt below (all hartree)
    1       0.034492738973      0.147886499170     -0.065443285903
    2      -0.034622184435     -0.143082862578     -0.078581090704
    3       0.031280985972      0.124973572189      0.069476405194
    4       0.004395554558     -0.154862133961      0.094016228695
    5       0.027453224037      0.151077947792     -0.082330580085
    6      -0.051217627447     -0.156716329236     -0.087376434788
    7       0.019856788558      0.131944075560      0.067957220178
    8       0.002691064194     -0.132022412657      0.078928228586
    9       0.026275015958      0.163683750398     -0.066647503762
   10      -0.042449408736     -0.144870998261     -0.077431295326
   11       0.030453583287      0.123339902677      0.056882446607
   12       0.015162923840     -0.139029652054      0.095054448637
   13       0.009123083793      0.192792636370     -0.056487886845
   14      -0.097419154067     -0.138460848544     -0.073367999665
   15       0.030428549553      0.119270597995      0.064628773775
   16      -0.014784158209     -0.131562922284      0.073345893281
   17       0.003796302002      0.151336881277     -0.046409010374
   18      -0.055534121161     -0.131731928871     -0.090566525430
   19       0.014155849967      0.139345294362      0.077700818819
   20       0.015899339905     -0.146883430184      0.080331689656
   21       0.022134420701      0.180240354920     -0.074305396304
   22      -0.061701748335     -0.147325539479     -0.092297238615
   23       0.006163220529      0.103976963441      0.050494620326
   24       0.020137893894     -0.132550796080      0.098125323196
   25       0.010469078725      0.160815788766     -0.058939435368
   26      -0.030957960701     -0.139833565159     -0.085725047320
   27       0.018805821354      0.123137573012      0.032107764008
   28      -0.045244047017     -0.120474717094     -0.028729644621
   29       0.019950196580      0.077602405607     -0.012444179193
   30       0.045594498605     -0.135929220578      0.017722110646
   31       0.005104311615      0.147580376086      0.037684810357
   32       0.020180434656     -0.143647856460      0.082696226877
 
 cartesian coordinates (angstrom) at end:
    1      0.04819496384051     0.10337303066246     0.00489161207740
    2      1.98297914409113     1.96583138598321    -0.03097870412815
    3      2.09213383194714     0.05316656580076     2.05009331548377
    4      0.01093509331387     1.96431594655580     2.08318412676728
    5      0.03935551210099     0.09774993776133     4.01821273777367
    6      1.96896178347925     1.94762420344142     3.98763948015265
    7      2.09507696129469     0.05289756366749     6.07286785381599
    8      0.01778171324768     1.97271618817829     6.09313663177656
    9      0.03747197894860     4.13177689755465     0.01393426246209
   10      1.97696659434234     5.97478443277719    -0.04085849765500
   11      2.08692794693761     4.05366882987127     2.05792284359536
   12      0.02236129176698     6.00052143288718     2.09056355204243
   13      0.02224545992652     4.14380687613969     4.03852845815074
   14      1.95048347291870     5.97972330577601     3.99822168908383
   15      2.09315998295888     4.05888462960859     6.06446815844959
   16      0.00985486425416     6.00238626083894     6.11266789465615
   17      4.04817273144584     0.09397455855134     0.02803973867230
   18      5.99726960481990     1.96918100130600    -0.03613138571737
   19      6.09952815592580     0.06403068595625     2.06775271799460
   20      4.05037806903082     1.97237571735675     2.06428146496508
   21      4.06072219464134     0.11581165474930     4.01674315492317
   22      5.98634500413324     1.97718076133902     3.98059441714783
   23      6.09602512106882     0.04298644720753     6.06312799504337
   24      4.05851225603728     1.96054836526214     6.11555288719830
   25      4.05446089155079     4.11851532645615    -0.00527631517015
   26      6.00238989855703     6.00110278236851    -0.02752938452358
   27      6.08630303072712     4.12790970564448     2.03726979341136
   28      3.97770560326380     5.99898144802352     1.97951576139939
   29      4.07947085680664     4.07691024147392     4.05365881118926
   30      6.06518051884853     5.99906942539119     4.09678603729866
   31      6.10052394488133     4.08187422705268     6.07191266229921
   32      4.05118188725634     5.98003425703019     6.08008454300629

 cartesian forces (hartree/bohr) at end:
    1     -0.00226910603616    -0.00972933504787     0.00430562418471
    2      0.00227792839860     0.00941338611976     0.00516995344791
    3     -0.00205780649661    -0.00822190564127    -0.00457067128225
    4     -0.00028902811412     0.01018833818441    -0.00618513335464
    5     -0.00180598005355    -0.00993929877304     0.00541663038089
    6      0.00336973385993     0.01031032471566     0.00574859450607
    7     -0.00130621456147    -0.00868049138937    -0.00447072489957
    8     -0.00017689059015     0.00868572494071    -0.00519250176852
    9     -0.00172846636409    -0.01076862789185     0.00438484904382
   10      0.00279287736578     0.00953102662516     0.00509430901514
   11     -0.00200337210946    -0.00811442738388    -0.00374212137519
   12     -0.00099740767216     0.00914672753265    -0.00625343729824
   13     -0.00060004977433    -0.01268368617948     0.00371645319403
   14      0.00640930797961     0.00910930624909     0.00482698693217
   15     -0.00200172515329    -0.00784670997061    -0.00425174816255
   16      0.00097279509421     0.00865549531093    -0.00482524286690
   17     -0.00024960360388    -0.00995633387075     0.00305336921568
   18      0.00365371370951     0.00866661416531     0.00595846889040
   19     -0.00093115281208    -0.00916741367899    -0.00511175112599
   20     -0.00104585609749     0.00966342346226    -0.00528483473365
   21     -0.00145605878140    -0.01185787818937     0.00488865776372
   22      0.00405947865514     0.00969250960009     0.00607233159997
   23     -0.00040532192799    -0.00684054980255    -0.00332186964615
   24     -0.00132470833362     0.00872048700800    -0.00645546851919
   25     -0.00068860207250    -0.01057994620550     0.00387773928104
   26      0.00203686104766     0.00919961655269     0.00563995059368
   27     -0.00123707198230    -0.00810111622172    -0.00211220804631
   28      0.00297673514741     0.00792600812739     0.00189025304770
   29     -0.00131235982611    -0.00510538152402     0.00081884084851
   30     -0.00299948495933     0.00894275177762    -0.00116578348300
   31     -0.00033565686787    -0.00970919537135    -0.00247911899033
   32     -0.00132750706791     0.00945055676985    -0.00544039639296
 frms,max,avg= 6.1433688E-03 1.2683686E-02  -1.531E-07 -3.990E-08 -1.448E-07 h/b

 cartesian forces (eV/Angstrom) at end:
    1     -0.11668211207289    -0.50030247346653     0.22140407528651
    2      0.11713577614411     0.48405572798562     0.26584966855093
    3     -0.10581665397543    -0.42278734453035    -0.23503334366247
    4     -0.01486242170574     0.52390536137328    -0.31805231301244
    5     -0.09286721891851    -0.51109924123364     0.27853430517917
    6      0.17327866465182     0.53017816038904     0.29560458512242
    7     -0.06716824662400    -0.44636876946281    -0.22989389454040
    8     -0.00909607895614     0.44663788946588    -0.26700914969938
    9     -0.08888130514611    -0.55374505489076     0.22547798093183
   10      0.14361551404206     0.49010504538937     0.26195987581225
   11     -0.10301752552511    -0.41726059087750    -0.19242759868043
   12     -0.05128875950707     0.47034359349249    -0.32156464265905
   13     -0.03085579690928    -0.65222130156327     0.19110768786864
   14      0.32957983455504     0.46841931391639     0.24821362299424
   15     -0.10293283564230    -0.40349400935973    -0.21863365911573
   16      0.05002312998953     0.44508341955867    -0.24812393956109
   17     -0.01283513208180    -0.51197522109026     0.15701054218973
   18      0.18788149418357     0.44565517398192     0.30639675879947
   19     -0.04788179796122    -0.47140731779938    -0.26285678512435
   20     -0.05378007745538     0.49691316380166    -0.27175710118916
   21     -0.07487354544407    -0.60975655160585     0.25138486433942
   22      0.20874676451791     0.49840883299479     0.31225181415021
   23     -0.02084248945322    -0.35175517846297    -0.17081738806645
   24     -0.06811923452823     0.44842542665778    -0.33195350469950
   25     -0.03540933870724    -0.54404265345077     0.19940135109130
   26      0.10473959579361     0.47306325597914     0.29001789108544
   27     -0.06361279260664    -0.41657610346684    -0.10861409385600
   28      0.15306986035313     0.40757168412239     0.09720071007834
   29     -0.06748424880511    -0.26252924705457     0.04210648516779
   30     -0.15423970259983     0.45985473949964    -0.05994699095069
   31     -0.01726016838802    -0.49926684976490    -0.12748141129669
   32     -0.06826315121742     0.48596711947210    -0.27975640253386
 frms,max,avg= 3.1590469E-01 6.5222130E-01  -7.873E-06 -2.052E-06 -7.448E-06 e/A
 length scales= 15.200000000000 15.200000000000 15.200000000000 bohr
              =  8.043493566160  8.043493566160  8.043493566160 angstroms
 Fermi energy (hartree) =   0.29058
 Eigenvalues (hartree) for nkpt=   4  k points:
 kpt#   1, nband= 64, wtk=  0.25000, kpt=  0.2500  0.2500  0.2500 (reduced coord)
  -0.10576  -0.06634  -0.06449  -0.06302  -0.02622  -0.02547  -0.02304   0.01323
   0.01518   0.01629   0.01883   0.05321   0.05462   0.05598   0.05732   0.05891
   0.05968   0.09165   0.09485   0.09729   0.12966   0.13263   0.13400   0.13519
   0.13760   0.13860   0.16896   0.17129   0.17272   0.17305   0.17476   0.17573
   0.17785   0.18065   0.18365   0.21359   0.21430   0.21762   0.25292   0.25382
   0.25499   0.25614   0.25743   0.25969   0.26007   0.29086   0.29193   0.29316
   0.29559   0.29719   0.29817   0.30016   0.30409   0.30630   0.34276   0.34410
   0.34491   0.34600   0.34622   0.34745   0.36821   0.37037   0.37284   0.37394
      occupation numbers for kpt#   1
   2.00000   2.00000   2.00000   2.00000   2.00000   2.00000   2.00000   2.00000
   2.00000   2.00000   2.00000   2.00000   2.00000   2.00000   2.00000   2.00000
   2.00000   2.00000   2.00000   2.00000   2.00000   2.00000   2.00000   2.00000
   2.00000   2.00000   1.99998   1.99998   1.99997   1.99997   1.99996   1.99995
   1.99993   1.99990   1.99984   1.99350   1.99300   1.99010   1.81690   1.80627
   1.79159   1.77654   1.75869   1.72510   1.71920   0.99196   0.96177   0.92721
   0.85927   0.81518   0.78828   0.73475   0.63271   0.57836   0.06503   0.05842
   0.05474   0.05004   0.04913   0.04434   0.00606   0.00478   0.00363   0.00320
 kpt#   2, nband= 64, wtk=  0.25000, kpt= -0.2500  0.2500  0.2500 (reduced coord)
  -0.10567  -0.06632  -0.06559  -0.06211  -0.02691  -0.02534  -0.02247   0.01354
   0.01416   0.01659   0.01891   0.05295   0.05397   0.05655   0.05686   0.05850
   0.06079   0.09167   0.09542   0.09659   0.12980   0.13317   0.13388   0.13526
   0.13588   0.13985   0.16898   0.17085   0.17247   0.17301   0.17507   0.17660
   0.17830   0.17995   0.18371   0.21257   0.21510   0.21790   0.25274   0.25357
   0.25455   0.25601   0.25791   0.25940   0.26053   0.29081   0.29172   0.29389
   0.29439   0.29785   0.29810   0.30061   0.30416   0.30620   0.34302   0.34351
   0.34438   0.34602   0.34695   0.34775   0.36840   0.36945   0.37084   0.37309
      occupation numbers for kpt#   2
   2.00000   2.00000   2.00000   2.00000   2.00000   2.00000   2.00000   2.00000
   2.00000   2.00000   2.00000   2.00000   2.00000   2.00000   2.00000   2.00000
   2.00000   2.00000   2.00000   2.00000   2.00000   2.00000   2.00000   2.00000
   2.00000   2.00000   1.99998   1.99998   1.99997   1.99997   1.99996   1.99994
   1.99993   1.99991   1.99984   1.99418   1.99238   1.98982   1.81903   1.80922
   1.79726   1.77826   1.75191   1.72961   1.71191   0.99345   0.96766   0.90680
   0.89268   0.79712   0.79021   0.72283   0.63111   0.58060   0.06372   0.06126
   0.05714   0.04996   0.04623   0.04323   0.00593   0.00529   0.00454   0.00353
 kpt#   3, nband= 64, wtk=  0.25000, kpt=  0.2500 -0.2500  0.2500 (reduced coord)
  -0.10571  -0.06612  -0.06429  -0.06360  -0.02619  -0.02513  -0.02356   0.01329
   0.01530   0.01652   0.01856   0.05349   0.05463   0.05610   0.05758   0.05838
   0.05920   0.09180   0.09467   0.09717   0.12983   0.13239   0.13396   0.13562
   0.13771   0.13834   0.16936   0.17166   0.17284   0.17349   0.17406   0.17544
   0.17800   0.18064   0.18349   0.21360   0.21469   0.21727   0.25299   0.25443
   0.25479   0.25620   0.25706   0.25922   0.26028   0.29137   0.29176   0.29266
   0.29576   0.29681   0.29761   0.30076   0.30402   0.30633   0.34333   0.34420
   0.34502   0.34584   0.34635   0.34721   0.36815   0.36955   0.37095   0.37340
      occupation numbers for kpt#   3
   2.00000   2.00000   2.00000   2.00000   2.00000   2.00000   2.00000   2.00000
   2.00000   2.00000   2.00000   2.00000   2.00000   2.00000   2.00000   2.00000
   2.00000   2.00000   2.00000   2.00000   2.00000   2.00000   2.00000   2.00000
   2.00000   2.00000   1.99998   1.99997   1.99997   1.99997   1.99996   1.99995
   1.99993   1.99990   1.99985   1.99350   1.99270   1.99045   1.81614   1.79869
   1.79417   1.77576   1.76401   1.73243   1.71593   0.97771   0.96666   0.94119
   0.85455   0.82566   0.80367   0.71870   0.63445   0.57744   0.06214   0.05797
   0.05424   0.05073   0.04860   0.04523   0.00609   0.00523   0.00449   0.00341
 kpt#   4, nband= 64, wtk=  0.25000, kpt= -0.2500 -0.2500  0.2500 (reduced coord)
  -0.10573  -0.06671  -0.06492  -0.06224  -0.02718  -0.02480  -0.02268   0.01341
   0.01404   0.01717   0.01863   0.05267   0.05412   0.05560   0.05747   0.05911
   0.06087   0.09144   0.09478   0.09766   0.12933   0.13244   0.13450   0.13521
   0.13654   0.13962   0.16919   0.16979   0.17163   0.17387   0.17547   0.17676
   0.17750   0.18030   0.18421   0.21232   0.21549   0.21776   0.25177   0.25376
   0.25461   0.25580   0.25911   0.25957   0.26036   0.29023   0.29139   0.29322
   0.29554   0.29790   0.29900   0.29957   0.30348   0.30741   0.34253   0.34333
   0.34500   0.34575   0.34628   0.34837   0.36749   0.37020   0.37270   0.37326
      occupation numbers for kpt#   4
   2.00000   2.00000   2.00000   2.00000   2.00000   2.00000   2.00000   2.00000
   2.00000   2.00000   2.00000   2.00000   2.00000   2.00000   2.00000   2.00000
   2.00000   2.00000   2.00000   2.00000   2.00000   2.00000   2.00000   2.00000
   2.00000   2.00000   1.99998   1.99998   1.99997   1.99996   1.99995   1.99994
   1.99994   1.99990   1.99983   1.99434   1.99206   1.98996   1.82992   1.80695
   1.79642   1.78108   1.73400   1.72694   1.71461   1.00973   0.97703   0.92543
   0.86067   0.79566   0.76582   0.75049   0.64833   0.55177   0.06623   0.06216
   0.05432   0.05108   0.04891   0.04101   0.00654   0.00488   0.00369   0.00346
 Eigenvalues (   eV  ) for nkpt=   4  k points:
 kpt#   1, nband= 64, wtk=  0.25000, kpt=  0.2500  0.2500  0.2500 (reduced coord)
  -2.87776  -1.80515  -1.75484  -1.71480  -0.71359  -0.69318  -0.62685   0.36009
   0.41313   0.44318   0.51243   1.44792   1.48617   1.52340   1.55971   1.60302
   1.62387   2.49386   2.58088   2.64741   3.52817   3.60908   3.64626   3.67880
   3.74439   3.77160   4.59758   4.66115   4.69985   4.70885   4.75552   4.78192
   4.83955   4.91567   4.99750   5.81221   5.83128   5.92185   6.88233   6.90670
   6.93877   6.96999   7.00513   7.06660   7.07687   7.91471   7.94385   7.97727
   8.04341   8.08686   8.11364   8.16772   8.27478   8.33472   9.32702   9.36354
   9.38544   9.41516   9.42123   9.45459  10.01944  10.07834  10.14556  10.17545
 kpt#   2, nband= 64, wtk=  0.25000, kpt= -0.2500  0.2500  0.2500 (reduced coord)
  -2.87555  -1.80474  -1.78485  -1.69011  -0.73227  -0.68960  -0.61154   0.36851
   0.38544   0.45151   0.51449   1.44083   1.46870   1.53879   1.54733   1.59192
   1.65431   2.49459   2.59651   2.62822   3.53202   3.62382   3.64299   3.68061
   3.69748   3.80557   4.59823   4.64896   4.69310   4.70778   4.76397   4.80561
   4.85174   4.89682   4.99913   5.78443   5.85321   5.92932   6.87733   6.90003
   6.92658   6.96650   7.01801   7.05867   7.08934   7.91328   7.93816   7.99706
   8.01079   8.10481   8.11172   8.17994   8.27652   8.33219   9.33399   9.34743
   9.37100   9.41574   9.44108   9.46281  10.02478  10.05325  10.09104  10.15221
 kpt#   3, nband= 64, wtk=  0.25000, kpt=  0.2500 -0.2500  0.2500 (reduced coord)
  -2.87665  -1.79923  -1.74932  -1.73052  -0.71275  -0.68376  -0.64103   0.36176
   0.41646   0.44950   0.50497   1.45559   1.48664   1.52667   1.56689   1.58852
   1.61080   2.49793   2.57614   2.64408   3.53286   3.60260   3.64520   3.69039
   3.74735   3.76441   4.60854   4.67108   4.70310   4.72082   4.73651   4.77404
   4.84370   4.91555   4.99305   5.81235   5.84214   5.91230   6.88412   6.92347
   6.93325   6.97157   6.99487   7.05366   7.08249   7.92846   7.93913   7.96374
   8.04805   8.07649   8.09829   8.18418   8.27291   8.33575   9.34261   9.36617
   9.38848   9.41065   9.42478   9.44818  10.01797  10.05609  10.09418  10.16060
 kpt#   4, nband= 64, wtk=  0.25000, kpt= -0.2500 -0.2500  0.2500 (reduced coord)
  -2.87704  -1.81533  -1.76661  -1.69356  -0.73947  -0.67481  -0.61723   0.36481
   0.38195   0.46730   0.50698   1.43319   1.47258   1.51289   1.56380   1.60857
   1.65648   2.48815   2.57905   2.65742   3.51928   3.60393   3.66004   3.67929
   3.71535   3.79927   4.60392   4.62018   4.67038   4.73132   4.77491   4.80985
   4.82992   4.90608   5.01257   5.77748   5.86377   5.92549   6.85103   6.90516
   6.92839   6.96073   7.05085   7.06337   7.08474   7.89757   7.92911   7.97899
   8.04204   8.10627   8.13619   8.15170   8.25798   8.36498   9.32069   9.34247
   9.38796   9.40842   9.42270   9.47972   9.99978  10.07358  10.14181  10.15694

,Min el dens=  1.2470E-02 el/bohr^3 at reduced coord.  0.7500  0.7500  0.0000
,   next min=  1.2521E-02 el/bohr^3 at reduced coord.  0.2500  0.2500  0.0000
,Max el dens=  4.0370E-02 el/bohr^3 at reduced coord.  0.1000  0.6500  0.4000
,   next max=  4.0329E-02 el/bohr^3 at reduced coord.  0.6000  0.1500  0.4000

 Eight components of total free energy (hartree) are
 kinetic= 2.62689103362189E+01 Hartree= 2.44112087340911E-01
      xc=-2.57193664170829E+01 loc psp= 3.61907738081529E+00
 nl psp = 1.52737753813773E+01 pspcore= 1.19235228414103E+00
 -kT*entropy =-2.95199742538870E-01 (internal energy=-6.57734998181822E+01 )
 Ewald  =-8.66523608709928E+01 resulting in Etotal=-6.60686995607210E+01 hartree
 Also Etotal= -1.79782071448619E+03 eV
 rms coord change=  6.1322E-03   atom, delta coord (reduced):
     1        0.002081194371      0.011314144761     -0.001190491555
     2       -0.008233327158     -0.007970444205     -0.006717462845
     3        0.006219043300      0.003887005144      0.002586796189
     4       -0.000068819692     -0.007230373973      0.005320543029
     5        0.002081577023      0.011314597976     -0.001189118288
     6       -0.008231660614     -0.007968839225     -0.006716920690
     7        0.006219583303      0.003887118518      0.002586873336
     8       -0.000069858301     -0.007231224506      0.005321326377
     9        0.002082041570      0.011312755126     -0.001190865464
    10       -0.008231878101     -0.007970132971     -0.006716486677
    11        0.006219652889      0.003889344550      0.002586431514
    12       -0.000069889583     -0.007231689577      0.005319519877
    13        0.002083210582      0.011311600857     -0.001190750570
    14       -0.008230123530     -0.007969531132     -0.006717729872
    15        0.006218830403      0.003888071549      0.002587257428
    16       -0.000068707177     -0.007231672848      0.005320943950
    17        0.002083375807      0.011313305991     -0.001193129093
    18       -0.008231108506     -0.007970549819     -0.006717087215
    19        0.006221100109      0.003886938566      0.002585087174
    20       -0.000070599798     -0.007230211267      0.005321954901
    21        0.002081224861      0.011312522758     -0.001189381921
    22       -0.008231656960     -0.007970289283     -0.006715526089
    23        0.006220973902      0.003889210708      0.002588029293
    24       -0.000071062004     -0.007230946046      0.005319231347
    25        0.002083071467      0.011314615976     -0.001189407037
    26       -0.008232839693     -0.007970880109     -0.006716293254
    27        0.002079190877      0.011314552023     -0.001193353608
    28       -0.008230474569     -0.007972062653     -0.006717580769
    29        0.006221702469      0.003887126599      0.002587278249
    30       -0.000072765402     -0.007231090834      0.005320535451
    31        0.006220643753      0.003887059011      0.002587623162
    32       -0.000071347314     -0.007229800260      0.005322426829

 Cartesian components of stress tensor (hartree/bohr^3)
  sigma(1 1)=  2.95237517E-04  sigma(3 2)=  1.35292270E-06
  sigma(2 2)=  2.98878711E-04  sigma(3 1)= -7.77051029E-06
  sigma(3 3)=  3.02565185E-04  sigma(2 1)= -1.94314042E-05

-Cartesian components of stress tensor (GPa)         [Pressure= -8.7938E+00 GPa]
- sigma(1 1)=  8.68618592E+00  sigma(3 2)=  3.98043521E-02
- sigma(2 2)=  8.79331352E+00  sigma(3 1)= -2.28616260E-01
- sigma(3 3)=  8.90177330E+00  sigma(2 1)= -5.71691536E-01
 Real(R)+Recip(G) space primitive vectors, cartesian coordinates (Bohr,Bohr^-1):
 R(1)= 15.2000000  0.0000000  0.0000000  G(1)=  0.0657895  0.0000000  0.0000000
 R(2)=  0.0000000 15.2000000  0.0000000  G(2)=  0.0000000  0.0657895  0.0000000
 R(3)=  0.0000000  0.0000000 15.2000000  G(3)=  0.0000000  0.0000000  0.0657895
 Unit cell volume ucvol=  3.5118080E+03 bohr^3

 getcut: wavevector=  0.0000  0.0000  0.0000  ngfft=  20  20  20
         ecut(hartree)=      2.000   => boxcut(ratio)=   2.06684
   4.18731229E+03                                ecore*ucvol(ha*bohr**3)
--------------------------------------------------------------------------------

 newkpt: treating     64 bands with npw=     480 for ikpt=   1
 newkpt: treating     64 bands with npw=     480 for ikpt=   2
 newkpt: treating     64 bands with npw=     480 for ikpt=   3
 newkpt: treating     64 bands with npw=     480 for ikpt=   4
 
 setup2: Arith. and geom. avg. npw (full set) are     480.000     480.000

================================================================================

 MOLDYN STEP NUMBER   0  ------------------------------------------------------

     iter   Etot(hartree)      deltaE(h)  residm     vres2    diffor    maxfor
 ETOT  1  -66.046434627650    -6.605E+01 3.967E-04 2.639E+00 5.884E-03 6.800E-03
 ETOT  2  -66.068255498047    -2.182E-02 1.052E-04 6.499E-02 6.025E-03 1.282E-02
 ETOT  3  -66.068678595062    -4.231E-04 2.159E-05 3.001E-03 2.197E-04 1.264E-02
 ETOT  4  -66.068696820523    -1.823E-05 1.538E-05 2.385E-04 8.181E-05 1.269E-02
 ETOT  5  -66.068698542596    -1.722E-06 7.736E-06 1.501E-05 2.396E-05 1.268E-02
 ETOT  6  -66.068699205295    -6.627E-07 1.128E-05 1.705E-07 5.022E-06 1.268E-02
 ETOT  7  -66.068699628341    -4.230E-07 6.032E-06 1.337E-08 8.685E-07 1.268E-02

 At SCF step    7, forces are converged :
  for the second time, max diff in force=  8.685E-07 < toldff=  1.000E-05

 Cartesian components of stress tensor (hartree/bohr^3)
  sigma(1 1)=  2.95245365E-04  sigma(3 2)=  1.40358779E-06
  sigma(2 2)=  2.98918580E-04  sigma(3 1)= -7.77573956E-06
  sigma(3 3)=  3.02538356E-04  sigma(2 1)= -1.94476392E-05
 
 Cartesian coordinates (bohr)
  9.10706029751584E-02  1.95355657236153E-01  9.25218713522834E-03
  3.74726896549531E+00  3.71488403902046E+00 -5.85443545054945E-02
  3.95355181451671E+00  1.00467256759891E-01  3.87411727394394E+00
  2.06742796422760E-02  3.71202040288992E+00  3.93664040579900E+00
  7.43704646975923E-02  1.84730142315124E-01  7.59333730490746E+00
  3.72079974563742E+00  3.68049072868612E+00  7.53554709131174E+00
  3.95912134570015E+00  9.99577529858234E-02  1.14760587194840E+01
  3.35991448132154E-02  3.72788817530052E+00  1.15143582828783E+01
  7.08157438095479E-02  7.80792529040192E+00  2.63287974548906E-02
  3.73591861238546E+00  1.12907085341282E+01 -7.72092918836350E-02
  3.94371561014378E+00  7.66033541356198E+00  3.88891151770009E+00
  4.22598950846114E-02  1.13393383134360E+01  3.95057468259562E+00
  4.20558013041897E-02  7.83064697600467E+00  7.63171407623889E+00
  3.68589285851939E+00  1.13000495296964E+01  7.55553743548037E+00
  3.95548813453934E+00  7.67018408256697E+00  1.14601882336967E+01
  1.86350703537196E-02  1.13428598628528E+01  1.15512583970821E+01
  7.64995061064194E+00  1.77592289335519E-01  5.29737040639224E-02
  1.13331938909501E+01  3.72120215147469E+00 -6.82781703119371E-02
  1.15264465590844E+01  1.20987749769658E-01  3.90747464658319E+00
  7.65410214741941E+00  3.72725490468168E+00  3.90093211320755E+00
  7.67365002040851E+00  2.18845694505025E-01  7.59055619087283E+00
  1.13125527877698E+01  3.73632154821434E+00  7.52224486721178E+00
  1.15198212682141E+01  8.12390263469281E-02  1.14576598673035E+01
  7.66947031758057E+00  3.70490418590071E+00  1.15567026999389E+01
  7.66183498078563E+00  7.78288523183463E+00 -9.95057826383544E-03
  1.13428577158478E+01  1.13404287584829E+01 -5.20210981871347E-02
  1.15014313961899E+01  7.80062714209826E+00  3.84986736817080E+00
  7.51677370450230E+00  1.13364110631068E+01  3.74074658508469E+00
  7.70909576681577E+00  7.70423383051498E+00  7.66030951046483E+00
  1.14615220283191E+01  1.13365940363153E+01  7.74178723950749E+00
  1.15283236790824E+01  7.71361598176385E+00  1.14742548453258E+01
  7.65561589536874E+00  1.13006424295486E+01  1.14897052870821E+01
 Velocities (bohr/(atomic time unit))
  6.30949577853353E-04  3.43265352005112E-03 -3.59048854918433E-04
 -2.50085844190857E-03 -2.41667401786480E-03 -2.03827315662778E-03
  1.88798896703471E-03  1.17673865929027E-03  7.83698144867554E-04
 -2.08763121394096E-05 -2.19110420407134E-03  1.61293402408938E-03
  6.31525573303221E-04  3.43298984823407E-03 -3.57678764920699E-04
 -2.49915058050706E-03 -2.41515240123484E-03 -2.03766880376011E-03
  1.88887984089640E-03  1.17641320858008E-03  7.83661416923439E-04
 -2.15571541357191E-05 -2.19270378802643E-03  1.61384306090287E-03
  6.31717752992342E-04  3.43128436075177E-03 -3.59466820191872E-04
 -2.50019286101351E-03 -2.41641650194560E-03 -2.03828860018021E-03
  1.88851663324984E-03  1.17783309338789E-03  7.84032159444936E-04
 -2.15042253937029E-05 -2.19252381697473E-03  1.61196442334999E-03
  6.33013779147183E-04  3.42924024258554E-03 -3.59767726734036E-04
 -2.49631359051133E-03 -2.41627728722887E-03 -2.03863710767075E-03
  1.88795561316088E-03  1.17742090413528E-03  7.83952441471233E-04
 -1.94039871827608E-05 -2.19289766892640E-03  1.61406822296831E-03
  6.33261102879829E-04  3.43263433677282E-03 -3.61672222351982E-04
 -2.49893861764445E-03 -2.41750637254398E-03 -2.03761302279823E-03
  1.88979436142520E-03  1.17504593159464E-03  7.82374860156149E-04
 -2.19859509944744E-05 -2.19151886027228E-03  1.61411047071030E-03
  6.31394770444848E-04  3.43015182248191E-03 -3.58494168379301E-04
 -2.49844848371255E-03 -2.41678499928351E-03 -2.03684869371713E-03
  1.89000720691098E-03  1.17882336516403E-03  7.85217236472997E-04
 -2.25220277400712E-05 -2.19247349743313E-03  1.61225181397888E-03
  6.32836562057585E-04  3.43264715630052E-03 -3.58826434766116E-04
 -2.50058466900631E-03 -2.41727997934738E-03 -2.03798289323212E-03
  6.30217022974481E-04  3.43441543692308E-03 -3.64418560790628E-04
 -2.49916278094999E-03 -2.41885158478080E-03 -2.03975183703316E-03
  1.89034911040587E-03  1.17810009387805E-03  7.86810968379362E-04
 -2.41621488069538E-05 -2.19259454523717E-03  1.61546276265935E-03
  1.89013513450457E-03  1.17544280100121E-03  7.85297398972314E-04
 -2.28811775944299E-05 -2.19107525596102E-03  1.61475826272551E-03
 Cartesian forces (hart/bohr); max,rms= 1.26839E-02 6.14335E-03 (free atoms)
 -2.26901690138760E-03 -9.72814364850130E-03  4.30573987970465E-03
  2.27799009569866E-03  9.41432324122530E-03  5.16902538434334E-03
 -2.05795774857133E-03 -8.22254410804866E-03 -4.57123376698243E-03
 -2.88930516065581E-04  1.01857628270055E-02 -6.18357874221874E-03
 -1.80795366107759E-03 -9.93962426629321E-03  5.41535176805213E-03
  3.36870312078347E-03  1.03096239132444E-02  5.74763969868413E-03
 -1.30488529424150E-03 -8.67899643451251E-03 -4.47012047442826E-03
 -1.76544107304185E-04  8.68629470832712E-03 -5.19220727929433E-03
 -1.72821038315785E-03 -1.07694898640048E-02  4.38419324660931E-03
  2.79297085208518E-03  9.53077792870334E-03  5.09462481116321E-03
 -2.00063240560162E-03 -8.11503345141290E-03 -3.74160870048352E-03
 -9.96663218651836E-04  9.14906206301383E-03 -6.25158697693155E-03
 -5.99801646729180E-04 -1.26839453459205E-02  3.71658282045370E-03
  6.40773695684612E-03  9.11132717192771E-03  4.82496835004461E-03
 -2.00054918194842E-03 -7.84942355790158E-03 -4.24991075368216E-03
  9.69172637822755E-04  8.65602174134801E-03 -4.82619413259771E-03
 -2.49015791029995E-04 -9.95733080363885E-03  3.05475819461749E-03
  3.65244382428427E-03  8.66910557032215E-03  5.95623810920102E-03
 -9.30927820435652E-04 -9.16996218979185E-03 -5.10944742873307E-03
 -1.04868358120574E-03  9.66334065110439E-03 -5.28624179514984E-03
 -1.45555811379171E-03 -1.18584720677291E-02  4.88733991343334E-03
  4.05971547463922E-03  9.69204522971927E-03  6.07200694380628E-03
 -4.02972132492841E-04 -6.84145567097699E-03 -3.32140657346428E-03
 -1.32405664646214E-03  8.72285999135673E-03 -6.45360472624846E-03
 -6.91132323396294E-04 -1.05811566721156E-02  3.87631490693057E-03
  2.03702305611089E-03  9.20024160155181E-03  5.63888239198868E-03
 -1.23520006232041E-03 -8.09995830052300E-03 -2.11120193046925E-03
  2.97773419404940E-03  7.92761565453541E-03  1.89112861281758E-03
 -1.31267776937070E-03 -5.10340862443156E-03  8.19528933355426E-04
 -2.99938052160937E-03  8.94303755341364E-03 -1.16585110318050E-03
 -3.36381554542247E-04 -9.70974939026052E-03 -2.48013327674804E-03
 -1.32635883092618E-03  9.44725454926427E-03 -5.43999630459332E-03
 
 At the end of Moldyn step     0, POT.En.= -6.60686996283412E+01 Ha.
                              KIN+POT.En.= -5.78985686397777E+01 Ha.

 MOLDYN STEP NUMBER   1  ------------------------------------------------------

     iter   Etot(hartree)      deltaE(h)  residm     vres2    diffor    maxfor
 ETOT  1  -65.972624922948    -6.597E+01 6.054E-05 2.212E+00 1.202E-02 2.470E-02
 ETOT  2  -65.987919578455    -1.529E-02 2.392E-06 5.154E-02 5.937E-03 2.987E-02
 ETOT  3  -65.988089740272    -1.702E-04 9.779E-07 2.333E-03 5.312E-04 2.969E-02
 ETOT  4  -65.988096561527    -6.821E-06 9.228E-07 2.666E-05 5.497E-05 2.967E-02
 ETOT  5  -65.988096658156    -9.663E-08 5.201E-07 6.923E-07 4.700E-06 2.967E-02
 ETOT  6  -65.988096670826    -1.267E-08 5.212E-07 6.311E-08 1.229E-06 2.967E-02

 At SCF step    6, forces are converged :
  for the second time, max diff in force=  1.229E-06 < toldff=  1.000E-05

 Cartesian components of stress tensor (hartree/bohr^3)
  sigma(1 1)=  1.89377273E-04  sigma(3 2)=  6.12809841E-06
  sigma(2 2)=  2.04793319E-04  sigma(3 1)= -2.87921435E-05
  sigma(3 3)=  2.23661988E-04  sigma(2 1)= -8.38486302E-05
 
 Cartesian coordinates (bohr)
  1.22560541717803E-01  3.66741119423964E-01 -8.59072712466989E-03
  3.62228406359150E+00  3.59428962235723E+00 -1.60326543799325E-01
  4.04789908670133E+00  1.59095240112327E-01  3.91318610498261E+00
  1.96232469789810E-02  3.60272408274106E+00  4.01713005370409E+00
  1.05900920948287E-01  3.56127046217815E-01  7.57559109548429E+00
  3.59592795683356E+00  3.55999514655844E+00  7.43380982490980E+00
  4.05353230060934E+00  1.58557863251701E-01  1.15151282838788E+01
  3.25169263051756E-02  3.61847376757884E+00  1.15949185779284E+01
  1.02357835687817E-01  7.97921582923237E+00  8.46697879187266E-03
  3.61098007755380E+00  1.11701299529096E+01 -1.78994144215527E-01
  4.03809072253953E+00  7.71902085095910E+00  3.92801813405276E+00
  4.11594800185435E-02  1.12299446653118E+01  4.03101412206200E+00
  7.36913725413177E-02  8.00178665381593E+00  7.61382024520011E+00
  3.56124015502968E+00  1.11794672490426E+01  7.45372830456419E+00
  4.04983519804575E+00  7.72885566086935E+00  1.14992779458598E+01
  1.76896281204768E-02  1.12334349917109E+01  1.16318392523114E+01
  7.68160746314618E+00  3.48970967660671E-01  3.49678282393728E-02
  1.12083399114445E+01  3.60054717767215E+00 -1.70007346221649E-01
  1.16209127439979E+01  1.79507018490397E-01  3.94646363490401E+00
  7.65297632399686E+00  3.61792457457471E+00  3.98150338889885E+00
  7.70518289250643E+00  3.90051930380223E-01  7.57275579206924E+00
  1.11877336656049E+01  3.61572864067206E+00  7.42055684997418E+00
  1.16143115131819E+01  1.40006344796444E-01  1.14968364167745E+01
  7.66831069182579E+00  3.59550222200056E+00  1.16371513747374E+01
  7.69345937003612E+00  7.95424869685433E+00 -2.77932851779164E-02
  1.12178803785093E+01  1.12197986029474E+01 -1.53776833085589E-01
  1.15329109812249E+01  7.97214207980100E+00  3.83159288463956E+00
  7.39189136935934E+00  1.12156699840265E+01  3.63880715535144E+00
  7.80357998715784E+00  7.76300915716211E+00  7.69967098673027E+00
  1.14602378188331E+01  1.12271916157486E+01  7.82253084785723E+00
  1.16228220128024E+01  7.77214137548179E+00  1.15134567835419E+01
  7.65443825361215E+00  1.11913287879164E+01  1.15703050447656E+01
 Velocities (bohr/(atomic time unit))
  6.25456468782463E-04  3.41543622478480E-03 -3.51318137084157E-04
 -2.49426179203625E-03 -2.40049910281149E-03 -2.02953231320029E-03
  1.88529902539448E-03  1.16383495450291E-03  7.75996676835673E-04
 -2.18525485625864E-05 -2.17507024820112E-03  1.60203443118021E-03
  6.26328268985668E-04  3.41499743710210E-03 -3.48475594709905E-04
 -2.49104960171489E-03 -2.39786481651030E-03 -2.02800690285694E-03
  1.88693645241278E-03  1.16292821464616E-03  7.76209646546295E-04
 -2.23491355876351E-05 -2.17858156239068E-03  1.60438906851393E-03
  6.26710968697140E-04  3.41278442347153E-03 -3.51635597348053E-04
 -2.49265586991819E-03 -2.40011177691828E-03 -2.02964733568395E-03
  1.88461676091713E-03  1.16358310593564E-03  7.78249372985829E-04
 -2.31557340427235E-05 -2.17738038128799E-03  1.60133150575105E-03
  6.29665405442992E-04  3.40770678099843E-03 -3.53011355644686E-04
 -2.48379885857066E-03 -2.40061253968713E-03 -2.03028476776375E-03
  1.88516873261865E-03  1.16491646786280E-03  7.76852413471545E-04
 -1.91513590694380E-05 -2.17860836877867E-03  1.60492915542719E-03
  6.30344992505441E-04  3.41529939665936E-03 -3.54902168479856E-04
 -2.49093302369346E-03 -2.40261513373740E-03 -2.02768264766797E-03
  1.88810662485899E-03  1.16117387607946E-03  7.74233100127462E-04
 -2.38850582874939E-05 -2.17618786585771E-03  1.60432944185929E-03
  6.26819165700248E-04  3.41042987089829E-03 -3.49772502086951E-04
 -2.48967341818590E-03 -2.40015331326444E-03 -2.02688512386314E-03
  1.88912209903474E-03  1.16732211325433E-03  7.79020065231517E-04
 -2.47859074647394E-05 -2.17817848978068E-03  1.60109365742457E-03
  6.29744879249525E-04  3.41337330211102E-03 -3.53159211978519E-04
 -2.49491964869767E-03 -2.40139432589148E-03 -2.02913756145782E-03
  6.28021249094459E-04  3.42218922673933E-03 -3.66816169439264E-04
 -2.49418170981172E-03 -2.40474507366013E-03 -2.03614220922275E-03
  1.88785068529689E-03  1.17085142024283E-03  7.87766512543504E-04
 -2.78101805352016E-05 -2.17878851942602E-03  1.61427803835542E-03
  1.88929261325766E-03  1.16007473869816E-03  7.81177035316620E-04
 -2.48863855162806E-05 -2.17621310361615E-03  1.60464936912550E-03
 Cartesian forces (hart/bohr); max,rms= 2.96741E-02 1.44935E-02 (free atoms)
 -8.54622837749917E-03 -2.41383695599183E-02  1.08954834325315E-02
  1.06918355798498E-02  2.24141121021692E-02  1.20194922172461E-02
 -3.24241030668100E-03 -1.71575256491598E-02 -1.05884159152984E-02
 -1.63993936668977E-03  2.13653531598071E-02 -1.52679769643727E-02
 -8.42533319499523E-03 -2.54518313292320E-02  1.26827352795835E-02
  1.25606993557293E-02  2.37078482176887E-02  1.32529419411216E-02
 -2.52673388975665E-03 -1.78446861656613E-02 -1.01982806673383E-02
 -1.38982743402580E-03  1.91037339411226E-02 -1.34153123214820E-02
 -8.13025243621204E-03 -2.56204592090208E-02  1.10147609545956E-02
  1.20268571945042E-02  2.25530421130938E-02  1.18979838433451E-02
 -5.68012118962478E-03 -1.99136770983253E-02 -7.64327776592173E-03
 -2.26071932351296E-03  2.06500681439257E-02 -1.46753188002861E-02
 -5.99594818025426E-03 -2.96740789565684E-02  9.56773655919450E-03
  1.82051663492067E-02  2.17134181459360E-02  1.15992177338889E-02
 -3.49053389689855E-03 -1.67451359174167E-02 -9.72648176792123E-03
 -4.80407038237412E-04  1.94627048697763E-02 -1.31617506788578E-02
 -5.49631063062044E-03 -2.41406337554357E-02  1.02564803288014E-02
  1.20893010466052E-02  2.06338591864190E-02  1.35725326013172E-02
 -2.39772856476933E-03 -1.81152150950297E-02 -1.09164210453312E-02
 -2.69581796336848E-03  2.05047876202871E-02 -1.39646806634964E-02
 -7.55461349873783E-03 -2.69356355206473E-02  1.22634491013106E-02
  1.31958673569194E-02  2.30350291917164E-02  1.35220701853412E-02
 -1.34661386501004E-03 -1.57794655074845E-02 -8.87872951847169E-03
 -3.13808850131110E-03  1.94070954132024E-02 -1.55066422350518E-02
 -5.39961064560106E-03 -2.73313759929388E-02  7.26524300337850E-03
  9.09993933572844E-03  2.20591081503564E-02  1.17552028106211E-02
 -3.09295545379053E-03 -1.59472265502716E-02 -2.61377553411183E-03
  6.81364474795806E-03  1.98314966749221E-02  5.20237153572826E-03
 -3.61090574408966E-03 -9.15110289504965E-03  1.05239747311059E-03
 -4.18590855076765E-03  1.82249079511888E-02 -1.17292988441763E-03
 -1.32942063849804E-03 -2.05186319538785E-02 -5.63414667712009E-03
 -2.62688227554936E-03  1.97984862744266E-02 -1.44559585616367E-02
 
 At the end of Moldyn step     1, POT.En.= -6.59880966708262E+01 Ha.
                              KIN+POT.En.= -5.79010260866444E+01 Ha.
================================================================================

 ----iterations are completed or convergence reached----

 Mean square residual over all n,k,spin=   2.5033E-09; max=  5.2121E-07
   0.2500  0.2500  0.2500    1  7.48565E-08 kpt; spin; max resid(k); each band:
 2.66E-12 3.01E-12 3.39E-12 1.85E-12 2.27E-12 4.01E-12 2.15E-12 3.03E-12
 2.48E-12 2.39E-12 2.19E-12 3.56E-12 2.08E-12 2.18E-12 2.53E-12 2.01E-12
 2.37E-12 2.58E-12 2.22E-12 2.22E-12 2.37E-12 1.97E-12 1.62E-12 2.21E-12
 1.78E-12 1.40E-12 2.82E-12 2.29E-12 2.22E-12 1.82E-12 1.66E-12 1.36E-12
 2.25E-12 1.31E-12 1.25E-12 1.78E-12 1.54E-12 1.40E-12 1.42E-12 1.41E-12
 1.66E-12 1.54E-12 1.28E-12 1.07E-12 1.27E-12 1.74E-12 1.25E-12 1.33E-12
 1.72E-12 1.41E-12 1.22E-12 1.38E-12 1.39E-12 1.39E-12 1.39E-12 1.33E-12
 1.08E-12 1.32E-12 9.29E-13 1.08E-12 3.32E-12 3.74E-11 8.75E-09 7.49E-08
  -0.2500  0.2500  0.2500    1  3.50911E-08 kpt; spin; max resid(k); each band:
 2.70E-12 3.34E-12 2.62E-12 2.20E-12 3.00E-12 3.56E-12 1.80E-12 2.85E-12
 2.67E-12 2.70E-12 2.00E-12 3.33E-12 2.96E-12 1.68E-12 2.40E-12 2.27E-12
 2.05E-12 2.66E-12 2.25E-12 2.18E-12 2.44E-12 1.71E-12 2.04E-12 2.05E-12
 1.81E-12 1.38E-12 3.33E-12 2.08E-12 1.86E-12 2.17E-12 1.42E-12 1.57E-12
 1.99E-12 1.41E-12 1.09E-12 1.75E-12 1.74E-12 1.31E-12 1.57E-12 1.70E-12
 1.65E-12 1.47E-12 1.34E-12 1.05E-12 1.13E-12 1.57E-12 1.58E-12 1.38E-12
 1.67E-12 1.28E-12 1.15E-12 1.42E-12 1.23E-12 1.32E-12 1.46E-12 1.53E-12
 1.47E-12 9.46E-13 8.63E-13 9.98E-13 2.87E-12 2.95E-12 1.19E-11 3.51E-08
   0.2500 -0.2500  0.2500    1  5.21211E-07 kpt; spin; max resid(k); each band:
 2.72E-12 3.33E-12 3.00E-12 1.84E-12 3.97E-12 2.44E-12 2.03E-12 2.92E-12
 3.18E-12 1.90E-12 2.12E-12 3.43E-12 2.57E-12 1.87E-12 2.38E-12 1.65E-12
 2.84E-12 2.43E-12 2.10E-12 2.26E-12 2.20E-12 2.38E-12 1.77E-12 1.87E-12
 1.74E-12 1.59E-12 2.74E-12 2.65E-12 2.41E-12 1.14E-12 1.71E-12 2.39E-12
 1.71E-12 1.23E-12 1.28E-12 1.93E-12 1.32E-12 1.27E-12 1.68E-12 1.26E-12
 1.35E-12 1.66E-12 1.19E-12 1.31E-12 1.13E-12 1.57E-12 1.39E-12 1.47E-12
 1.55E-12 1.23E-12 1.24E-12 1.58E-12 1.39E-12 1.46E-12 1.46E-12 1.42E-12
 1.13E-12 1.06E-12 8.78E-13 1.11E-12 1.46E-12 2.57E-12 1.88E-11 5.21E-07
  -0.2500 -0.2500  0.2500    1  2.60785E-10 kpt; spin; max resid(k); each band:
 2.66E-12 2.94E-12 2.85E-12 2.52E-12 2.82E-12 3.38E-12 2.28E-12 2.79E-12
 2.60E-12 2.34E-12 2.36E-12 2.91E-12 2.95E-12 1.98E-12 2.30E-12 2.30E-12
 2.31E-12 2.59E-12 2.21E-12 2.22E-12 2.31E-12 2.21E-12 1.47E-12 2.07E-12
 1.69E-12 1.51E-12 2.83E-12 2.34E-12 2.14E-12 1.49E-12 1.82E-12 1.86E-12
 1.87E-12 1.64E-12 1.00E-12 1.64E-12 1.48E-12 1.46E-12 1.52E-12 1.58E-12
 1.64E-12 1.69E-12 1.34E-12 1.08E-12 1.14E-12 1.47E-12 1.51E-12 1.54E-12
 1.59E-12 1.43E-12 1.52E-12 1.09E-12 1.22E-12 1.36E-12 1.62E-12 1.21E-12
 1.24E-12 1.26E-12 1.21E-12 8.63E-13 1.49E-12 1.69E-11 1.10E-10 2.61E-10
 reduced coordinates (array xred) for   32 atoms
       0.008063193534      0.024127705225     -0.000565179416
       0.238308162078      0.236466422524     -0.010547798934
       0.266309150441      0.010466792113      0.257446454275
       0.001291003091      0.237021321233      0.264284871954
       0.006967165852      0.023429410935      0.498394151019
       0.236574207686      0.234210207010      0.489066435849
       0.266679756619      0.010431438372      0.757574229203
       0.002139271467      0.238057484709      0.762823590653
       0.006734068137      0.524948409818      0.000557038078
       0.237564478786      0.734876970586     -0.011775930540
       0.265663863325      0.507830319142      0.258422245661
       0.002707860528      0.738812149034      0.265198297504
       0.004848116615      0.526433332488      0.500909226658
       0.234292115462      0.735491266384      0.490376862142
       0.266436526187      0.508477346110      0.756531443807
       0.001163791324      0.739041775770      0.765252582389
       0.505368912049      0.022958616293      0.002300515016
       0.737390783648      0.236878103794     -0.011184693830
       0.764533733158      0.011809672269      0.259635765454
       0.503485284473      0.238021353590      0.261941012428
       0.506919927139      0.025661311209      0.498207617899
       0.736035109579      0.237876884255      0.488194529604
       0.764099441657      0.009210943737      0.756370816893
       0.504494124462      0.236546198816      0.765602064127
       0.506148642766      0.523305835319     -0.001828505604
       0.738018445955      0.738144644931     -0.010116896914
[...]
              1.997915  1.987438  1.879849  1.874904  1.748687  1.685253
              1.657103  1.494972  1.429577  1.335627  1.272077  1.136210
              0.934214  0.772542  0.637304  0.599015  0.526853  0.436679
              0.170392  0.128522  0.097937  0.087656  0.065694  0.046571
              0.009571  0.004928  0.004318  0.003267
              2.000000  2.000000  2.000000  2.000000  2.000000  2.000000
              2.000000  2.000000  2.000000  2.000000  2.000000  2.000000
              2.000000  2.000000  2.000000  2.000000  2.000000  2.000000
              2.000000  2.000000  2.000000  2.000000  2.000000  2.000000
              2.000000  1.999999  1.999999  1.999997  1.999993  1.999983
              1.999973  1.999961  1.999883  1.999700  1.999213  1.998659
              1.997090  1.986178  1.895351  1.839641  1.803835  1.749181
              1.636504  1.469056  1.412861  1.352673  1.219185  1.097940
              0.965377  0.719264  0.658729  0.612361  0.514541  0.430684
              0.156882  0.143615  0.101472  0.073660  0.067790  0.044719
              0.012150  0.010884  0.006521  0.004498
              2.000000  2.000000  2.000000  2.000000  2.000000  2.000000
              2.000000  2.000000  2.000000  2.000000  2.000000  2.000000
              2.000000  2.000000  2.000000  2.000000  2.000000  2.000000
              2.000000  2.000000  2.000000  2.000000  2.000000  2.000000
              2.000000  1.999999  1.999999  1.999995  1.999991  1.999987
              1.999980  1.999941  1.999922  1.999653  1.998942  1.998699
              1.997854  1.987450  1.892903  1.842589  1.768170  1.726463
              1.652567  1.493375  1.426909  1.339302  1.279420  1.098456
              0.947309  0.762568  0.636455  0.610545  0.531550  0.491174
              0.152112  0.114926  0.090056  0.079954  0.069919  0.050572
              0.013147  0.009734  0.004250  0.003367
              2.000000  2.000000  2.000000  2.000000  2.000000  2.000000
              2.000000  2.000000  2.000000  2.000000  2.000000  2.000000
              2.000000  2.000000  2.000000  2.000000  2.000000  2.000000
              2.000000  2.000000  2.000000  2.000000  2.000000  2.000000
              2.000000  1.999999  1.999999  1.999997  1.999995  1.999982
              1.999970  1.999959  1.999883  1.999731  1.999215  1.998543
              1.996853  1.986657  1.903828  1.861953  1.774358  1.727545
              1.581143  1.477847  1.388491  1.352965  1.277813  1.141901
              0.964350  0.795455  0.625302  0.555400  0.497572  0.383932
              0.178768  0.139062  0.090179  0.081904  0.076590  0.043545
              0.011895  0.006357  0.004803  0.003974
    occopt         7
    prtvol         1
    shiftk    5.00000000E-01  5.00000000E-01  5.00000000E-01
    strten   -5.1282251743E-06  4.0305605259E-05  8.7057503103E-05
              2.2441981081E-05 -5.8087097060E-05 -1.9920019887E-04
    timopt        -2
    toldff    1.00000000E-05
      type    1  1  1  1  1  1  1  1  1  1  1  1  1  1  1  1  1  1  1  1
              1  1  1  1  1  1  1  1  1  1  1  1
    useria         1
    userib         3
    useric         2
    userra    2.00000000E+00
       vel    6.0984411895E-04  3.3811671951E-03 -3.3471264730E-04
             -2.4746958238E-03 -2.3691235763E-03 -2.0136531627E-03
              1.8825965699E-03  1.1414606570E-03  7.6139096092E-04
             -2.4716585562E-05 -2.1477227920E-03  1.5798832731E-03
              6.1023233256E-04  3.3783920502E-03 -3.2988180907E-04
             -2.4695848332E-03 -2.3654065283E-03 -2.0105465695E-03
              1.8843887438E-03  1.1400300411E-03  7.6236898849E-04
             -2.4671735823E-05 -2.1533528045E-03  1.5845727475E-03
              6.1111297091E-04  3.3771074230E-03 -3.3469019620E-04
             -2.4708483545E-03 -2.3686906050E-03 -2.0135169397E-03
              1.8760452592E-03  1.1348657519E-03  7.6844293846E-04
             -2.6313136346E-05 -2.1499194734E-03  1.5807626439E-03
              6.1675885914E-04  3.3669705034E-03 -3.3784853007E-04
             -2.4559048537E-03 -2.3701929921E-03 -2.0146984409E-03
              1.8818338015E-03  1.1429221984E-03  7.6365522392E-04
             -2.2072630905E-05 -2.1526811269E-03  1.5848995584E-03
              6.1795529619E-04  3.3810888643E-03 -3.3753151569E-04
             -2.4705958652E-03 -2.3734083298E-03 -2.0098118689E-03
              1.8853000134E-03  1.1391764876E-03  7.5984850680E-04
             -2.7906074488E-05 -2.1496053373E-03  1.5835176937E-03
              6.1209225801E-04  3.3738634320E-03 -3.3114802974E-04
             -2.4682266454E-03 -2.3675147438E-03 -2.0092400464E-03
              1.8877407067E-03  1.1457929433E-03  7.6596912891E-04
             -2.9244770208E-05 -2.1526255845E-03  1.5788092934E-03
              6.1848464352E-04  3.3733078191E-03 -3.4383936931E-04
             -2.4785588130E-03 -2.3703182842E-03 -2.0136829439E-03
              6.2364080131E-04  3.4032779082E-03 -3.6926629115E-04
             -2.4848137357E-03 -2.3758212565E-03 -2.0291172110E-03
              1.8826417941E-03  1.1602865274E-03  7.8878112377E-04
             -3.1641361029E-05 -2.1561332516E-03  1.6144558775E-03
              1.8876671568E-03  1.1335833982E-03  7.7349979649E-04
             -2.8098399936E-05 -2.1510288972E-03  1.5827728368E-03
       wtk      0.25000    0.25000    0.25000    0.25000
    xangst    8.1323353476E-02  2.8421046492E-01 -1.3734596551E-02
              1.8509403018E+00  1.8387203573E+00 -1.3844054761E-01
              2.1919818559E+00  1.1479263557E-01  2.0911765990E+00
              9.7686958060E-03  1.8491238977E+00  2.1680323212E+00
              7.2518200778E-02  2.7854800785E-01  3.9997165349E+00
              1.8370588616E+00  1.8206221016E+00  3.8802507144E+00
              2.1949934047E+00  1.1448234574E-01  6.1139682708E+00
              1.6611304533E-02  1.8573686970E+00  6.1781007149E+00
              7.0654278457E-02  4.3124962162E+00 -4.6905423166E-03
              1.8450147163E+00  5.8476884607E+00 -1.4831201568E-01
              2.1867231641E+00  4.1152642299E+00  2.0991241286E+00
              2.1122834058E-02  5.8852329623E+00  2.1754074666E+00
              5.5564678322E-02  4.3242952949E+00  4.0198307002E+00
              1.8189207539E+00  5.8525918052E+00  3.8907257963E+00
              2.1930008965E+00  4.1205591478E+00  6.1055992310E+00
              8.7894050446E-03  5.8870396213E+00  6.1976524864E+00
              4.0815270202E+00  2.7478625974E-01  9.2864545671E-03
              5.8653781058E+00  1.8419800831E+00 -1.4350301655E-01
              6.1994926215E+00  1.2557896643E-01  2.1087704955E+00
              4.0491138395E+00  1.8571349155E+00  2.1492358822E+00
              4.0939214562E+00  2.9643317688E-01  3.9982030003E+00
              5.8544963781E+00  1.8501040375E+00  3.8732528119E+00
              6.1960441690E+00  1.0475951716E-01  6.1043443808E+00
              4.0572137139E+00  1.8452153915E+00  6.2003590460E+00
              4.0877892729E+00  4.2992287521E+00 -2.4005751335E-02
              5.8703030648E+00  5.8739635931E+00 -1.3495420162E-01
              6.1196014357E+00  4.3090618407E+00  2.0178886906E+00
              3.8456459047E+00  5.8716947530E+00  1.8716921120E+00
              4.1793919211E+00  4.1389213960E+00  4.0953530207E+00
              6.0637361944E+00  5.8837142905E+00  4.1822834656E+00
              6.2005418655E+00  4.1433306940E+00  6.1132551493E+00
              4.0498923699E+00  5.8647695833E+00  6.1650250564E+00
     xcart    1.5367886636E-01  5.3707994310E-01 -2.5954626042E-02
              3.4977702606E+00  3.4746779122E+00 -2.6161472081E-01
              4.1422453983E+00  2.1692664342E-01  3.9517510698E+00
              1.8460159759E-02  3.4943377544E+00  4.0969873365E+00
              1.3703953920E-01  5.2637944999E-01  7.5583688644E+00
              3.4715381404E+00  3.4404771655E+00  7.3326111813E+00
              4.1479364006E+00  2.1634028062E-01  1.1553725623E+01
              3.1390816295E-02  3.5099181670E+00  1.1674918379E+01
              1.3351723647E-01  8.1494368021E+00 -8.8638403979E-03
              3.4865725269E+00  1.1050529707E+01 -2.8026909201E-01
              4.1323079109E+00  7.7767223632E+00  3.9667697241E+00
              3.9916371542E-02  1.1121478533E+01  4.1109243416E+00
              1.0500202475E-01  8.1717338296E+00  7.5963791280E+00
              3.4372620842E+00  1.1059795685E+01  7.3524062172E+00
              4.1441711058E+00  7.7867283080E+00  1.1537910430E+01
              1.6609568414E-02  1.1124892624E+01  1.1711865873E+01
              7.7129682764E+00  5.1927077627E-01  1.7548855887E-02
              1.1083958292E+01  3.4808379012E+00 -2.7118140067E-01
              1.1715343224E+01  2.3730985473E-01  3.9849987159E+00
              7.6517162417E+00  3.5094763840E+00  4.0614672145E+00
              7.7363903660E+00  5.6017752132E-01  7.5555086983E+00
              1.1063394807E+01  3.4961899502E+00  7.3193870619E+00
              1.1708826593E+01  1.9796679735E-01  1.1535539107E+01
              7.6670227861E+00  3.4869517481E+00  1.1716980529E+01
              7.7248022190E+00  8.1243649285E+00 -4.5364295663E-02
              1.1093265115E+01  1.1100182512E+01 -2.5502648169E-01
              1.1564370762E+01  8.1429467731E+00  3.8132569939E+00
              7.2672175679E+00  1.1095895025E+01  3.5369854987E+00
              7.8979061373E+00  7.8214279283E+00  7.7390956308E+00
              1.1458800756E+01  1.1118608659E+01  7.9033703643E+00
              1.1717326008E+01  7.8297602939E+00  1.1552378019E+01
              7.6531874510E+00  1.1082808351E+01  1.1650208965E+01
      xred    1.0110451734E-02  3.5334206783E-02 -1.7075411869E-03
              2.3011646451E-01  2.2859723107E-01 -1.7211494790E-02
              2.7251614462E-01  1.4271489699E-02  2.5998362302E-01
              1.2144841947E-03  2.2989064174E-01  2.6953864056E-01
              9.0157591576E-03  3.4630226973E-02  4.9726110950E-01
              2.2839066713E-01  2.2634718194E-01  4.8240863035E-01
              2.7289055267E-01  1.4232913199E-02  7.6011352785E-01
              2.0651852826E-03  2.3091566888E-01  7.6808673546E-01
              8.7840287154E-03  5.3614715803E-01 -5.8314739460E-04
              2.2937977150E-01  7.2700853338E-01 -1.8438756054E-02
              2.7186236256E-01  5.1162647126E-01  2.6097169237E-01
              2.6260770752E-03  7.3167621928E-01  2.7045554879E-01
              6.9080279439E-03  5.3761406774E-01  4.9976178474E-01
              2.2613566344E-01  7.2761813720E-01  4.8371093534E-01
              2.7264283591E-01  5.1228475710E-01  7.5907305461E-01
              1.0927347641E-03  7.3190083052E-01  7.7051749162E-01
              5.0743212345E-01  3.4162551071E-02  1.1545299926E-03
              7.2920778236E-01  2.2900249350E-01 -1.7840881623E-02
              7.7074626473E-01  1.5612490443E-02  2.6217096815E-01
              5.0340238432E-01  2.3088660421E-01  2.6720179043E-01
              5.0897305039E-01  3.6853784297E-02  4.9707294068E-01
              7.2785492149E-01  2.3001249672E-01  4.8153862249E-01
              7.7031753902E-01  1.3024131405E-02  7.5891704650E-01
              5.0440939382E-01  2.2940472027E-01  7.7085398217E-01
              5.0821067230E-01  5.3449769266E-01 -2.9844931357E-03
              7.2982007339E-01  7.3027516524E-01 -1.6778058006E-02
              7.6081386593E-01  5.3572018244E-01  2.5087217065E-01
              4.7810641894E-01  7.2999309376E-01  2.3269641439E-01
              5.1959908798E-01  5.1456762686E-01  5.0915102834E-01
              7.5386847077E-01  7.3148741179E-01  5.1995857660E-01
              7.7087671103E-01  5.1511580881E-01  7.6002486966E-01
              5.0349917441E-01  7.2913212836E-01  7.6646111614E-01
    zatnum    13.000

================================================================================

- Total cpu        time (s,m,h):        770.2       12.84      0.214
- Total wall clock time (s,m,h):       2283.1       38.05      0.634

 For major independent code sections, cpu and wall times (sec),
 as well as % of the total time and number of calls 

- routine                 cpu     %       wall     %      number of calls 
-                                                          (-1=no count)
- nonlop(apply)        190.694  24.8    232.247  10.2         168846
- projbd               152.764  19.8    164.666   7.2         267036
- fourwf(pot)          151.470  19.7    168.125   7.4         168846
- vtowfk(ssdiag)        87.481  11.4   1315.238  57.6             -1
- getghc-other          62.406   8.1     75.546   3.3             -1
- nonlop(forces)        39.816   5.2     46.389   2.0          26112
- cgwf-O(npw)           33.408   4.3     36.922   1.6             -1
- fourwf(den)           14.020   1.8     16.381   0.7          27136
- nonlop(stress)         9.526   1.2     13.497   0.6           4608
- vtowfk(contrib)        9.044   1.2     21.053   0.9            408
- ewald                  2.797   0.4      3.702   0.2             18
- forces                 2.504   0.3      3.133   0.1            102
- ewald2                 2.239   0.3      3.318   0.1             18
- inwffil                1.755   0.2      2.042   0.1              9
- rwwf                   1.411   0.2      1.756   0.1             52
- mkrho/=                0.917   0.1      0.958   0.0            212
- vtorho(4)-mkrho        0.766   0.1      0.806   0.0            204
- vtorho-kpt loop        0.704   0.1     13.475   0.6            102
- status                 0.420   0.1     57.127   2.5           8678
- xc:pot/=fourdp         0.363   0.0      0.446   0.0            120
- scfcv-scprqt           0.263   0.0      8.638   0.4            102
- fourdp                 0.256   0.0      0.262   0.0            426
- pspini                 0.247   0.0      0.317   0.0              9
- vtowfk  (1)            0.172   0.0      5.747   0.3            408
- vtorho  (1)            0.083   0.0      0.358   0.0            102
- kpgsph                 0.002   0.0      0.002   0.0             40
- vtowfk3(contrib)       0.000   0.0      0.000   0.0             -1
- cgwf3-O(npw)           0.000   0.0      0.000   0.0             -1
- 21   others            0.000   0.0      0.000   0.0

- subtotal             765.527  99.4   2192.151  96.0

 Partitioning of abinit 
- abinit               770.217 100.0   2283.142 100.0              1
 
- abinit(1)              0.009   0.0      0.818   0.0              1
- abinit(2)              0.138   0.0      0.216   0.0              1
- abinit(3)              0.273   0.0      0.285   0.0              1
- abinit(4)              0.012   0.0      0.026   0.0              1
- abinit(5)              0.000   0.0      0.012   0.0              1
- driver-gstate        766.713  99.5   2278.081  99.8              9
- abinit(6)              0.014   0.0      0.014   0.0              1

- subtotal             767.158  99.6   2279.452  99.8

 Partitioning of gstate 
- driver-gstate        766.713  99.5   2278.081  99.8              9
 
- gstate->kpgsph         1.796   0.2      4.847   0.2             18
- pspini                 0.247   0.0      0.317   0.0              9
- gstate  (2)            0.621   0.1      0.640   0.0              9
- test_ionmov          762.620  99.0   2137.168  93.6              9
- gstate  (3)            1.408   0.2    134.142   5.9              9

- subtotal             766.692  99.5   2277.114  99.7

 Partitioning of scfcv 
- scfcv                762.207  99.0   2134.516  93.5             18
 
- scfcv   (1)            0.010   0.0      0.503   0.0             18
- setvtr/=mkcore         2.902   0.4      3.808   0.2             18
- setvtr:mkcore          0.242   0.0      0.244   0.0             36
- scfcv-read             0.030   0.0      0.327   0.0            102
- vtorho               743.285  96.5   2097.725  91.9            102
- vresfo                 2.962   0.4      3.671   0.2            102
- scfcv-scprqt           0.263   0.0      8.638   0.4            102
- newvtr                 0.205   0.0      0.209   0.0             84
- scfcv   (6)            0.002   0.0      0.297   0.0             36
- stress                12.257   1.6     17.682   0.8             18

- subtotal             762.157  99.0   2133.104  93.4

 Partitioning of vresfo 
- vresfo                 2.962   0.4      3.671   0.2            102
 
- vresfo-Hxc,res         0.443   0.1      0.523   0.0            102
- vresfo-mkcore          0.006   0.0      0.006   0.0            102
- forces                 2.504   0.3      3.133   0.1            102

- subtotal               2.953   0.4      3.662   0.2

 Partitioning of vtorho 
- vtorho               743.285  96.5   2097.725  91.9            102
 
- vtorho  (1)            0.083   0.0      0.358   0.0            102
- vtowfk               727.255  94.4   2065.933  90.5            408
- vtorho-kpt loop        0.704   0.1     13.475   0.6            102
- vtorho  (4)           15.236   2.0     17.666   0.8            204

- subtotal             743.277  96.5   2097.432  91.9

 Partitioning of vtowfk 
- vtowfk               727.255  94.4   2065.933  90.5            408
 
- vtowfk  (1)            0.172   0.0      5.747   0.3            408
- cgwf                 590.742  76.7    677.506  29.7          35328
- vtowfk(ssdiag)        87.481  11.4   1315.238  57.6             -1
- vtowfk(contrib)        9.044   1.2     21.053   0.9            408
- nonlop%vtowfk         39.816   5.2     46.389   2.0          26112

- subtotal             727.255  94.4   2065.933  90.5

 Partitioning of cgwf 
- cgwf                 590.742  76.7    677.506  29.7          35328
 
- getghc%cgwf          404.570  52.5    475.918  20.8         168846
- cgwf-O(npw)           33.408   4.3     36.922   1.6             -1
- projbd%cgwf          152.764  19.8    164.666   7.2         267036

- subtotal             590.742  76.7    677.506  29.7

 Partitioning of getghc 
- getghc               404.570  52.5    475.918  20.8         168846
 
- fourwf%getghc        151.470  19.7    168.125   7.4         168846
- nonlop%getghc        190.694  24.8    232.247  10.2         168846
- getghc-other          62.406   8.1     75.546   3.3             -1

- subtotal             404.570  52.5    475.918  20.8

 Additional information 
- wrtout                 1.835   0.2      2.684   0.1          26923
- total timab            0.000   0.0      0.000   0.0         906812
- fourwf(total )       165.490  21.5    184.506   8.1         195982
- mklocl(2)              0.798   0.1      0.884   0.0            102
- status                 0.420   0.1     57.127   2.5           8678
- newocc                 0.703   0.1      0.734   0.0            106
- nonlop(stress)         9.526   1.2     13.497   0.6           4608
- nonlop(total )       240.036  31.2    292.133  12.8         199566


 Detailed analysis of some time consuming routines 
                          tcpu    ncalls  tcpu/ncalls    ndata tcpu/ncalls/ndata
                         (sec)                (msec)              (microsec)
- fourwf(pot)          151.470    168846       0.897     16000       0.056
- fourwf(den)           14.020     27136       0.517      8000       0.065
- fourdp                 0.256       426       0.600      8000       0.075
- nonlop(apply)        190.694    168846       1.129     15360       0.074
- nonlop(forces)        39.816     26112       1.525     15360       0.099
- nonlop(stress)         9.526      4608       2.067     15360       0.135
- projbd               152.764    267036       0.572     30720       0.019
- xc:pot/=fourdp         0.363       120       3.026      8000       0.378

================================================================================

 Calculation completed.
 Delivered  205 WARNINGs and   1 COMMENTs to log file.
+Overall time at end (sec) : cpu=        770.2  wall=       2283.3
