
 Version 3.3.2  of ABINIT 
 (sequential version, prepared for a Compaq/DEC computer) 

 Copyright (C) 1998-2002 ABINIT group . 
 ABINIT comes with ABSOLUTELY NO WARRANTY.
 It is free software, and you are welcome to redistribute it
 under certain conditions (GNU General Public License,
 see ~abinit/COPYING or http://www.gnu.org/copyleft/gpl.txt).

 ABINIT is a project of the Universite Catholique de Louvain,
 Corning Inc. and other collaborators, see ~abinit/doc/developers/contributors.
 Please read ~abinit/doc/users/acknowledgments.htm for suggested
 acknowledgments of the ABINIT effort.
 For more information, see http://www.abinit.org .

 Starting date : Thu 18 Jul 2002.
  
- input  file    -> almd.in
- output file    -> almd.out
- root for input  files -> almdi
- root for output files -> almdo


 Symmetries : space group P1 (#  1); Bravais aP (primitive triclinic)
================================================================================
 Values of the parameters that define the memory need of the present run
   intxc =         0  ionmov =         6    iscf =         3     ixc =         1
  lmnmax =         3   lnmax =         3   mband =        64  mffmem =         1
   mgfft =        20   mkmem =         1 mpssoang=         3     mpw =       240
  mqgrid =      1201   natom =        32    nfft =      8000    nkpt =         1
  nloalg =         4  nspden =         1 nspinor =         1  nsppol =         1
    nsym =         1  n1xccc =         0   ntypat =         1  occopt =         7
================================================================================
 This job should need less than                       2.758 Mbytes of memory.
 Rough estimation (10% accuracy) of disk space for files :
 WF disk file :      0.236 Mbytes ; DEN or POT disk file :      0.063 Mbytes.
================================================================================

 -outvars: echo values of preprocessed input variables --------
     acell    1.5200000000E+01  1.5200000000E+01  1.5200000000E+01 Bohr
       amu    2.69815390E+01
     dtion    5.00000000E+01
      ecut    2.00000000E+00 Hartree
    enunit         2
    ionmov         6
      iscf         3
    istwfk      9
       kpt    5.00000000E-01  5.00000000E-01  5.00000000E-01
   kptrlen    1.52000000E+01
    kptopt         1
  kptrlatt    1  0  0   0  1  0   0  0  1
     mkmem         1
     natom        32
     nband        64
     ngfft        20      20      20
      nkpt         1
     nline         6
     nstep        30
      nsym         1
     ntime         1
     ntypat         1
       occ    2.000000  2.000000  2.000000  2.000000  2.000000  2.000000
              2.000000  2.000000  2.000000  2.000000  2.000000  2.000000
              2.000000  2.000000  2.000000  2.000000  2.000000  2.000000
              2.000000  2.000000  2.000000  2.000000  2.000000  2.000000
              2.000000  2.000000  2.000000  2.000000  2.000000  2.000000
              2.000000  2.000000  2.000000  2.000000  2.000000  2.000000
              2.000000  2.000000  2.000000  2.000000  2.000000  2.000000
              2.000000  2.000000  2.000000  2.000000  2.000000  2.000000
              0.000000  0.000000  0.000000  0.000000  0.000000  0.000000
              0.000000  0.000000  0.000000  0.000000  0.000000  0.000000
              0.000000  0.000000  0.000000  0.000000
    occopt         7
    prtvol         1
    shiftk    5.00000000E-01  5.00000000E-01  5.00000000E-01
    timopt        -2
    toldff    1.00000000E-05
      type    1  1  1  1  1  1  1  1  1  1  1  1  1  1  1  1  1  1  1  1
              1  1  1  1  1  1  1  1  1  1  1  1
    useria         1
    userib         3
    useric         2
    userra    2.00000000E+00
       vel    6.3269548001E-04  3.4391235119E-03 -3.6213141014E-04
             -2.5022484810E-03 -2.4228390644E-03 -2.0420877464E-03
              1.8910648372E-03  1.1819032372E-03  7.8647595924E-04
             -2.1511836197E-05 -2.1981876847E-03  1.6177431973E-03
              6.3269548001E-04  3.4391235119E-03 -3.6213141014E-04
             -2.5022484810E-03 -2.4228390644E-03 -2.0420877464E-03
              1.8910648372E-03  1.1819032372E-03  7.8647595924E-04
             -2.1511836197E-05 -2.1981876847E-03  1.6177431973E-03
              6.3269548001E-04  3.4391235119E-03 -3.6213141014E-04
             -2.5022484810E-03 -2.4228390644E-03 -2.0420877464E-03
              1.8910648372E-03  1.1819032372E-03  7.8647595924E-04
             -2.1511836197E-05 -2.1981876847E-03  1.6177431973E-03
              6.3269548001E-04  3.4391235119E-03 -3.6213141014E-04
             -2.5022484810E-03 -2.4228390644E-03 -2.0420877464E-03
              1.8910648372E-03  1.1819032372E-03  7.8647595924E-04
             -2.1511836197E-05 -2.1981876847E-03  1.6177431973E-03
              6.3269548001E-04  3.4391235119E-03 -3.6213141014E-04
             -2.5022484810E-03 -2.4228390644E-03 -2.0420877464E-03
              1.8910648372E-03  1.1819032372E-03  7.8647595924E-04
             -2.1511836197E-05 -2.1981876847E-03  1.6177431973E-03
              6.3269548001E-04  3.4391235119E-03 -3.6213141014E-04
             -2.5022484810E-03 -2.4228390644E-03 -2.0420877464E-03
              1.8910648372E-03  1.1819032372E-03  7.8647595924E-04
             -2.1511836197E-05 -2.1981876847E-03  1.6177431973E-03
              6.3269548001E-04  3.4391235119E-03 -3.6213141014E-04
             -2.5022484810E-03 -2.4228390644E-03 -2.0420877464E-03
              6.3269548001E-04  3.4391235119E-03 -3.6213141014E-04
             -2.5022484810E-03 -2.4228390644E-03 -2.0420877464E-03
              1.8910648372E-03  1.1819032372E-03  7.8647595924E-04
             -2.1511836197E-05 -2.1981876847E-03  1.6177431973E-03
              1.8910648372E-03  1.1819032372E-03  7.8647595924E-04
             -2.1511836197E-05 -2.1981876847E-03  1.6177431973E-03
    xangst    3.1454890308E-02  1.2367780069E-02  1.4467323241E-02
              2.0492038581E+00  2.0299416027E+00  2.3053165044E-02
              2.0421109972E+00  2.1901464932E-02  2.0292864370E+00
              1.1488644061E-02  2.0224734131E+00  2.0403883731E+00
              2.2612360711E-02  6.7410417377E-03  4.0277774031E+00
              2.0351730927E+00  2.0117215105E+00  4.0416669885E+00
              2.0450497830E+00  2.1631550874E-02  6.0520603548E+00
              1.8343618043E-02  2.0308804960E+00  6.0503345773E+00
              2.0725090976E-02  4.0407828245E+00  2.3512981157E-02
              2.0431796529E+00  6.0388921461E+00  1.3165519722E-02
              2.0369002089E+00  4.0223849120E+00  2.0371188984E+00
              2.2923448181E-02  6.0586894815E+00  2.0477760281E+00
              5.4891690105E-03  4.0528220874E+00  4.0481062527E+00
              2.0166824186E+00  6.0438261782E+00  4.0522557061E+00
              2.0431388606E+00  4.0276109511E+00  6.0436575700E+00
              1.0407509990E-02  6.0605541749E+00  6.0698689162E+00
              4.0314151115E+00  2.9760546031E-03  3.7636664859E-02
              6.0634764731E+00  2.0332920675E+00  1.7897462077E-02
              6.0494887772E+00  3.2766120611E-02  2.0469595859E+00
              4.0509459381E+00  2.0305318752E+00  2.0214743550E+00
              4.0439818759E+00  2.4819450725E-02  4.0263099408E+00
              6.0525562839E+00  2.0412897319E+00  4.0346107080E+00
              6.0459867575E+00  1.1703605900E-02  6.0423111981E+00
              4.0590838428E+00  2.0187104333E+00  6.0727676841E+00
              4.0377057196E+00  4.0275062857E+00  4.2906726762E-03
              6.0686106917E+00  6.0652165052E+00  2.6493077052E-02
              6.0695790723E+00  4.0369011792E+00  2.0468685255E+00
              4.0439073725E+00  6.0631046827E+00  2.0335485791E+00
              4.0294266330E+00  4.0456441637E+00  4.0328480552E+00
              6.0657658069E+00  6.0572326580E+00  4.0539903446E+00
              6.0504882369E+00  4.0506086929E+00  6.0510991320E+00
              4.0517557689E+00  6.0381871089E+00  6.0372736371E+00
     xcart    5.9441128254E-02  2.3371717215E-02  2.7339278817E-02
              3.8724340844E+00  3.8360336969E+00  4.3564168453E-02
              3.8590305197E+00  4.1387770653E-02  3.8347956132E+00
              2.1710390925E-02  3.8219208639E+00  3.8557752321E+00
              4.2731168985E-02  1.2738722742E-02  7.6113962202E+00
              3.8459197803E+00  3.8016027125E+00  7.6376437328E+00
              3.8645840201E+00  4.0877707005E-02  1.1436736616E+01
              3.4664414406E-02  3.8378079481E+00  1.1433475370E+01
              3.9164746046E-02  7.6359729049E+00  4.4433094978E-02
              3.8610499864E+00  1.1411852308E+01  2.4879226685E-02
              3.8491835570E+00  7.6012058889E+00  3.8495968201E+00
              4.3319039106E-02  1.1449263850E+01  3.8697358768E+00
              1.0373026133E-02  7.6587238147E+00  7.6498121786E+00
              3.8109774702E+00  1.1421176278E+01  7.6576535091E+00
              3.8609729002E+00  7.6110816716E+00  1.1420857654E+01
              1.9667343617E-02  1.1452787610E+01  1.1470389920E+01
              7.6182704930E+00  5.6239281595E-03  7.1122989178E-02
              1.1458309954E+01  3.8423651578E+00  3.3821301818E-02
              1.1431877039E+01  6.1918994427E-02  3.8681930246E+00
              7.6551784062E+00  3.8371491503E+00  3.8200329176E+00
              7.6420182359E+00  4.6901964664E-02  7.6086231183E+00
              1.1437673787E+01  3.8574785533E+00  7.6243092952E+00
              1.1425259181E+01  2.2116609931E-02  1.1418313380E+01
              7.6705568175E+00  3.8148098626E+00  1.1475867798E+01
              7.6301580194E+00  7.6108838825E+00  8.1081962884E-03
              1.1468012221E+01  1.1461598138E+01  5.0064660072E-02
              1.1469842195E+01  7.6286376585E+00  3.8680209453E+00
              7.6418774450E+00  1.1457607372E+01  3.8428498945E+00
              7.6145128132E+00  7.6451595047E+00  7.6209783641E+00
              1.1462636168E+01  1.1446510853E+01  7.6609315009E+00
              1.1433765744E+01  7.6545411053E+00  1.1434920169E+01
              7.6567087648E+00  1.1410519981E+01  1.1408793770E+01
      xred    3.9106005430E-03  1.5376129746E-03  1.7986367643E-03
              2.5476540029E-01  2.5237063795E-01  2.8660637140E-03
              2.5388358682E-01  2.7228796482E-03  2.5228918508E-01
              1.4283151925E-03  2.5144216210E-01  2.5366942316E-01
              2.8112611175E-03  8.3807386458E-04  5.0074975133E-01
              2.5302103817E-01  2.5010544161E-01  5.0247656137E-01
              2.5424894869E-01  2.6893228292E-03  7.5241688266E-01
              2.2805535793E-03  2.5248736501E-01  7.5220232695E-01
              2.5766280294E-03  5.0236663848E-01  2.9232299328E-03
              2.5401644647E-01  7.5077975713E-01  1.6367912293E-03
              2.5323576033E-01  5.0007933480E-01  2.5326294869E-01
              2.8499367833E-03  7.5324104279E-01  2.5458788663E-01
              6.8243592978E-04  5.0386340886E-01  5.0327711701E-01
              2.5072220199E-01  7.5139317617E-01  5.0379299402E-01
              2.5401137501E-01  5.0072905734E-01  7.5137221411E-01
              1.2939041853E-03  7.5347286910E-01  7.5463091582E-01
              5.0120200612E-01  3.6999527365E-04  4.6791440249E-03
              7.5383618116E-01  2.5278718144E-01  2.2250856459E-03
              7.5209717363E-01  4.0736180544E-03  2.5448638320E-01
              5.0363015831E-01  2.5244402304E-01  2.5131795511E-01
              5.0276435763E-01  3.0856555700E-03  5.0056731042E-01
              7.5247853860E-01  2.5378148377E-01  5.0159929574E-01
              7.5166178823E-01  1.4550401270E-03  7.5120482765E-01
              5.0464189589E-01  2.5097433306E-01  7.5499130249E-01
              5.0198408022E-01  5.0071604490E-01  5.3343396634E-04
              7.5447448820E-01  7.5405250907E-01  3.2937276363E-03
              7.5459488124E-01  5.0188405648E-01  2.5447506219E-01
              5.0275509507E-01  7.5378995866E-01  2.5281907201E-01
              5.0095479034E-01  5.0297102004E-01  5.0138015553E-01
              7.5412080049E-01  7.5305992454E-01  5.0400865138E-01
              7.5222143054E-01  5.0358823061E-01  7.5229737952E-01
              5.0373083979E-01  7.5069210403E-01  7.5057853747E-01
    zatnum    13.000

================================================================================

 chkinp: Checking input parameters for consistency.

================================================================================
== DATASET  1 ==================================================================

 Real(R)+Recip(G) space primitive vectors, cartesian coordinates (Bohr,Bohr^-1):
 R(1)= 15.2000000  0.0000000  0.0000000  G(1)=  0.0657895  0.0000000  0.0000000
 R(2)=  0.0000000 15.2000000  0.0000000  G(2)=  0.0000000  0.0657895  0.0000000
 R(3)=  0.0000000  0.0000000 15.2000000  G(3)=  0.0000000  0.0000000  0.0657895
 Unit cell volume ucvol=  3.5118080E+03 bohr^3

 getcut: wavevector=  0.0000  0.0000  0.0000  ngfft=  20  20  20
         ecut(hartree)=      2.000   => boxcut(ratio)=   2.06684
--- Pseudopotential description ------------------------------------------------
- pspini: atom type   1  psp file is 13al.981214.fhi
- pspatm: opening atomic psp file    13al.981214.fhi
 Aluminum, fhi98PP : Hamann-type, LDA CA PerdewWang, l=2 local
  13.00000   3.00000    981214                zatom, zion, pspdat
    6    7    2    2       493   0.00000      pspcod,pspxc,lmax,lloc,mmax,r2well
  No XC core correction.
  1.024700          amesh (Hamman grid)
 pspatm: epsatm=    1.36305739
         --- l  ekb(1:nproj) -->
             0    1.768744
             1    0.900554
 pspatm: atomic psp has been read  and splines computed

   4.18731229E+03                                ecore*ucvol(ha*bohr**3)
--------------------------------------------------------------------------------

 newkpt: treating     64 bands with npw=     240 for ikpt=   1
 
 setup2: Arith. and geom. avg. npw (full set) are     480.000     480.000

================================================================================

 MOLDYN STEP NUMBER   0  ------------------------------------------------------

     iter   Etot(hartree)      deltaE(h)  residm     vres2    diffor    maxfor
 ETOT  1  -66.148596124613    -6.615E+01 1.636E-03 9.205E-01 8.849E-04 8.849E-04
 ETOT  2  -66.154772768160    -6.177E-03 2.771E-06 6.476E-02 1.330E-03 1.249E-03
 ETOT  3  -66.155165833178    -3.931E-04 3.378E-07 8.651E-03 3.420E-04 1.127E-03
 ETOT  4  -66.155198356195    -3.252E-05 5.707E-08 8.952E-04 1.754E-04 1.185E-03
 ETOT  5  -66.155201883020    -3.527E-06 3.546E-09 3.985E-06 4.338E-05 1.172E-03
 ETOT  6  -66.155201901155    -1.813E-08 1.427E-11 3.022E-07 2.211E-06 1.172E-03
 ETOT  7  -66.155201902258    -1.103E-09 1.774E-12 9.299E-08 7.128E-07 1.172E-03

 At SCF step    7, forces are converged :
  for the second time, max diff in force=  7.128E-07 < toldff=  1.000E-05

 Cartesian components of stress tensor (hartree/bohr^3)
  sigma(1 1)=  2.71357325E-04  sigma(3 2)= -6.82493004E-08
  sigma(2 2)=  2.71251702E-04  sigma(3 1)= -1.49146646E-08
  sigma(3 3)=  2.71270427E-04  sigma(2 1)=  1.63777189E-08
 
 Cartesian coordinates (bohr)
  5.94411282539040E-02  2.33717172145280E-02  2.73392788172080E-02
  3.87243408440800E+00  3.83603369688560E+00  4.35641684532560E-02
  3.85903051972480E+00  4.13877706527920E-02  3.83479561317040E+00
  2.17103909253920E-02  3.82192086387440E+00  3.85577523207760E+00
  4.27311689853920E-02  1.27387227416008E-02  7.61139622020080E+00
  3.84591978026000E+00  3.80160271251760E+00  7.63764373279360E+00
  3.86458402013360E+00  4.08777070046000E-02  1.14367366164928E+01
  3.46644144058160E-02  3.83780794810640E+00  1.14334753696856E+01
  3.91647460461200E-02  7.63597290492640E+00  4.44330949784080E-02
  3.86104998635920E+00  1.14118523083304E+01  2.48792266846000E-02
  3.84918355703120E+00  7.60120588891440E+00  3.84959682011840E+00
  4.33190391063120E-02  1.14492638504536E+01  3.86973587679120E+00
  1.03730261325800E-02  7.65872381473280E+00  7.64981217861280E+00
  3.81097747021760E+00  1.14211762777536E+01  7.65765350913440E+00
  3.86097290015200E+00  7.61108167159840E+00  1.14208576544568E+01
  1.96673436165600E-02  1.14527876102896E+01  1.14703899204792E+01
  7.61827049297840E+00  5.62392815948000E-03  7.11229891777200E-02
  1.14583099536928E+01  3.84236515784240E+00  3.38213018178320E-02
  1.14318770391912E+01  6.19189944267280E-02  3.86819302464000E+00
  7.65517840623600E+00  3.83714915025360E+00  3.82003291761120E+00
  7.64201823591520E+00  4.69019646644560E-02  7.60862311830800E+00
  1.14376737867656E+01  3.85747855328880E+00  7.62430929517200E+00
  1.14252591810200E+01  2.21166099310080E-02  1.14183133802952E+01
  7.67055681752800E+00  3.81480986255760E+00  1.14758677978480E+01
  7.63015801942000E+00  7.61088388252560E+00  8.10819628835280E-03
  1.14680122206248E+01  1.14615981378488E+01  5.00646600723680E-02
  1.14698421948024E+01  7.62863765848080E+00  3.86802094530320E+00
  7.64187744498800E+00  1.14576073715712E+01  3.84284989452160E+00
  7.61451281315280E+00  7.64515950465360E+00  7.62097836411680E+00
  1.14626361675240E+01  1.14465108530536E+01  7.66093150091520E+00
  1.14337657442080E+01  7.65454110527200E+00  1.14349201687648E+01
  7.65670876479280E+00  1.14105199812104E+01  1.14087937695744E+01
 Velocities (bohr/(atomic time unit))
  6.32695480013759E-04  3.43912351194327E-03 -3.62131410135049E-04
 -2.50224848098954E-03 -2.42283906441236E-03 -2.04208774639310E-03
  1.89106483717239E-03  1.18190323717619E-03  7.86475959235376E-04
 -2.15118361966065E-05 -2.19818768470709E-03  1.61774319729277E-03
  6.32695480013759E-04  3.43912351194327E-03 -3.62131410135049E-04
 -2.50224848098954E-03 -2.42283906441236E-03 -2.04208774639310E-03
  1.89106483717239E-03  1.18190323717619E-03  7.86475959235376E-04
 -2.15118361966065E-05 -2.19818768470709E-03  1.61774319729277E-03
  6.32695480013759E-04  3.43912351194327E-03 -3.62131410135049E-04
 -2.50224848098954E-03 -2.42283906441236E-03 -2.04208774639310E-03
  1.89106483717239E-03  1.18190323717619E-03  7.86475959235376E-04
 -2.15118361966065E-05 -2.19818768470709E-03  1.61774319729277E-03
  6.32695480013759E-04  3.43912351194327E-03 -3.62131410135049E-04
 -2.50224848098954E-03 -2.42283906441236E-03 -2.04208774639310E-03
  1.89106483717239E-03  1.18190323717619E-03  7.86475959235376E-04
 -2.15118361966065E-05 -2.19818768470709E-03  1.61774319729277E-03
  6.32695480013759E-04  3.43912351194327E-03 -3.62131410135049E-04
 -2.50224848098954E-03 -2.42283906441236E-03 -2.04208774639310E-03
  1.89106483717239E-03  1.18190323717619E-03  7.86475959235376E-04
 -2.15118361966065E-05 -2.19818768470709E-03  1.61774319729277E-03
  6.32695480013759E-04  3.43912351194327E-03 -3.62131410135049E-04
 -2.50224848098954E-03 -2.42283906441236E-03 -2.04208774639310E-03
  1.89106483717239E-03  1.18190323717619E-03  7.86475959235376E-04
 -2.15118361966065E-05 -2.19818768470709E-03  1.61774319729277E-03
  6.32695480013759E-04  3.43912351194327E-03 -3.62131410135049E-04
 -2.50224848098954E-03 -2.42283906441236E-03 -2.04208774639310E-03
  6.32695480013759E-04  3.43912351194327E-03 -3.62131410135049E-04
 -2.50224848098954E-03 -2.42283906441236E-03 -2.04208774639310E-03
  1.89106483717239E-03  1.18190323717619E-03  7.86475959235376E-04
 -2.15118361966065E-05 -2.19818768470709E-03  1.61774319729277E-03
  1.89106483717239E-03  1.18190323717619E-03  7.86475959235376E-04
 -2.15118361966065E-05 -2.19818768470709E-03  1.61774319729277E-03
 Cartesian forces (hart/bohr); max,rms= 1.17168E-03 5.59693E-04 (free atoms)
  2.81328123806693E-04  4.55485663059013E-04  7.28516204746184E-04
 -9.64214512074294E-04 -3.44324358635139E-04  1.70932394544315E-04
 -9.58687963972639E-04 -1.20789641759851E-04 -3.32503910810182E-04
  1.12976068694941E-03  1.50151165309263E-04 -3.62266021443186E-04
  2.60891184306231E-04  7.54985366074011E-04  9.06764173197403E-04
 -3.73886263518747E-04  2.85873325370457E-04  1.38011839379240E-05
 -5.62994907118107E-04 -4.16456785729459E-04 -1.74994308784324E-04
  4.54429539332897E-04 -7.47086396577986E-05  2.07018945609801E-05
  3.62498856174434E-04 -2.10464825147073E-04 -1.04093063400656E-04
 -4.23808716873980E-04 -1.41807968295603E-04  4.35095209918988E-04
 -4.01482440826557E-04  5.46405569155075E-04 -4.50118565462999E-04
  3.13494228246642E-04 -7.29973486474811E-05 -9.00097372932840E-04
  9.38741630067292E-04 -2.15315088772237E-04  3.28046354881014E-04
  7.60708972763816E-05  3.68146954697633E-05  2.01517790671646E-04
 -9.88485652783169E-04  3.25958033003428E-04  4.82236505214606E-05
  1.15316232188395E-03 -7.44433719944850E-04 -6.31932582288373E-04
  1.10664684255912E-03  3.52401746505586E-04 -9.12154234314839E-04
 -2.00614709630429E-04 -1.82998671182338E-04  2.17209935722232E-04
  1.75859400838297E-04 -4.81235979936803E-04 -8.60940730299334E-04
  9.63853650283443E-05  1.69975477284273E-04 -7.60033980438902E-05
  2.49916311033721E-04 -4.21104994588676E-05  8.84393748781713E-04
 -5.40080992670595E-04 -2.69111749676086E-04  9.10983573618195E-04
 -2.30160632297728E-04  6.41039737276562E-04  2.94350729273650E-04
  4.37480031643181E-05 -9.00724393890610E-05 -1.17167691061496E-03
  7.27652139010226E-04  6.67267572297779E-04  1.03333311728302E-03
 -8.87491035098725E-04 -3.29204360817188E-04  5.09878883168931E-04
 -1.05802929540374E-03  6.98692521708257E-04 -9.30536522206345E-04
  4.19238383503056E-04 -1.08326510731313E-03 -1.36135867415770E-04
  7.52389617289698E-04 -3.43417048278095E-04  2.88288029214573E-04
 -8.93770850872703E-04 -1.96205884129923E-04 -4.09329168453091E-04
  7.69501537275200E-05 -2.76169984071148E-04  8.90383956331189E-05
 -1.35455711056816E-04  5.50039228328658E-04  3.71707386795443E-04
 
 At the end of Moldyn step     0, POT.En.= -6.61552019022576E+01 Ha.
                              KIN+POT.En.= -5.79509234326252E+01 Ha.

 MOLDYN STEP NUMBER   1  ------------------------------------------------------

     iter   Etot(hartree)      deltaE(h)  residm     vres2    diffor    maxfor
 ETOT  1  -66.121650572145    -6.612E+01 2.584E-06 1.745E+00 9.475E-03 9.690E-03
 ETOT  2  -66.132303299511    -1.065E-02 9.700E-08 9.355E-02 3.593E-03 1.258E-02
 ETOT  3  -66.132594911033    -2.916E-04 5.637E-07 6.337E-03 5.705E-04 1.256E-02
 ETOT  4  -66.132614693113    -1.978E-05 2.072E-08 1.286E-05 1.034E-04 1.255E-02
 ETOT  5  -66.132614733603    -4.049E-08 1.315E-09 6.017E-07 3.791E-06 1.255E-02
 ETOT  6  -66.132614735351    -1.748E-09 2.522E-10 7.200E-08 1.233E-06 1.255E-02

 At SCF step    6, forces are converged :
  for the second time, max diff in force=  1.233E-06 < toldff=  1.000E-05

 Cartesian components of stress tensor (hartree/bohr^3)
  sigma(1 1)=  2.33763945E-04  sigma(3 2)=  1.60507919E-06
  sigma(2 2)=  2.52112805E-04  sigma(3 1)= -8.51088819E-06
  sigma(3 3)=  2.42764827E-04  sigma(2 1)= -2.38062200E-05
 
 Cartesian coordinates (bohr)
  9.10831742556975E-02  1.95339561333686E-01  9.25133436132131E-03
  3.74729727739789E+00  3.71488308533914E+00 -5.85357635822902E-02
  3.95355951907777E+00  1.00479955230071E-01  3.87411107178643E+00
  2.06636336867088E-02  3.71201538820842E+00  3.93665329620451E+00
  7.43726955906435E-02  1.84714178524436E-01  7.59331280584486E+00
  3.72079797620329E+00  3.68046811719009E+00  7.53553980733196E+00
  3.95912307586538E+00  9.99623773211382E-02  1.14760560781516E+01
  3.36004938994739E-02  3.72789675771952E+00  1.15143631667870E+01
  7.08088549692087E-02  7.80792382418356E+00  2.63239900951149E-02
  3.73592691354355E+00  1.12907068436560E+01 -7.72139917599594E-02
  3.94372671753691E+00  7.66031502998780E+00  3.88890928960561E+00
  4.22515367861068E-02  1.13393527035585E+01  3.95060027215209E+00
  4.20317800324326E-02  7.83067461072248E+00  7.63171405637784E+00
  3.68586710163993E+00  1.13000353527019E+01  7.55555435441431E+00
  3.95550114220877E+00  7.67018521008693E+00  1.14601827891096E+01
  1.86211811209528E-02  1.13428593991110E+01  1.15512611311397E+01
  7.64993351412124E+00  1.77589152442640E-01  5.29933477469715E-02
  1.13331925532625E+01  3.72121864632296E+00 -6.82774540927441E-02
  1.15264348726060E+01  1.21002018406276E-01  3.90749505324824E+00
  7.65410538618195E+00  3.72724417841448E+00  3.90091825698677E+00
  7.67365948359849E+00  2.18857162578632E-01  7.59053913541678E+00
  1.13125477589371E+01  3.73632985324034E+00  7.52222817123751E+00
  1.15198066956001E+01  8.12281560934727E-02  1.14576447701681E+01
  7.66948245971671E+00  3.70489828170598E+00  1.15567252911249E+01
  7.66181140856591E+00  7.78285710899623E+00 -9.97200136912946E-03
  1.13428773635108E+01  1.13404479105710E+01 -5.20266577754174E-02
  1.15014502015777E+01  7.80061168360379E+00  3.84989083669405E+00
  7.51677579787304E+00  1.13364379801448E+01  3.74074215847052E+00
  7.70908529884964E+00  7.70424603124549E+00  7.66030959990861E+00
  1.14615379830507E+01  1.13365965748635E+01  7.74180836895129E+00
  1.15283210638844E+01  7.71362934092080E+00  1.14742463407079E+01
  7.65562985259168E+00  1.13006246685376E+01  1.14896904873383E+01
 Velocities (bohr/(atomic time unit))
  6.31854491182360E-04  3.43410753753260E-03 -3.59682502928730E-04
 -2.50132008692247E-03 -2.41822236202132E-03 -2.03948649038387E-03
  1.88978128230442E-03  1.17785405361194E-03  7.84043644566137E-04
 -2.07569072508331E-05 -2.19318704507276E-03  1.61536339611029E-03
  6.31869804551922E-04  3.43447882022525E-03 -3.59206896822455E-04
 -2.50118058490507E-03 -2.41752957712455E-03 -2.03996005456942E-03
  1.89029501567313E-03  1.17698484511342E-03  7.84357982825092E-04
 -2.14605469691075E-05 -2.19377459474225E-03  1.61518217264829E-03
  6.32074109278256E-04  3.43418444110086E-03 -3.60163273583525E-04
 -2.50113198054326E-03 -2.41802667056241E-03 -2.03919136437882E-03
  1.89018899056420E-03  1.17778969504266E-03  7.84213016013524E-04
 -2.19065286807641E-05 -2.19341843340912E-03  1.61395781210998E-03
  6.32739540308526E-04  3.43263919893994E-03 -3.59884692572852E-04
 -2.49950874136705E-03 -2.41812356409634E-03 -2.03931820835496E-03
  1.88971805996519E-03  1.17809321973950E-03  7.84430552620830E-04
 -2.07679608319608E-05 -2.19418684507097E-03  1.61490454806330E-03
  6.32998676826873E-04  3.43440023425339E-03 -3.60729382045244E-04
 -2.50137525458877E-03 -2.41850964870750E-03 -2.03930514404202E-03
  1.89094090658767E-03  1.17697202813167E-03  7.83462971448658E-04
 -2.22645608680594E-05 -2.19322376130399E-03  1.61462961747864E-03
  6.32165682040196E-04  3.43338674121915E-03 -3.59088599919968E-04
 -2.50055270483678E-03 -2.41801716807507E-03 -2.03835057470047E-03
  1.89078932605971E-03  1.17858134732559E-03  7.84673516351528E-04
 -2.16517337230560E-05 -2.19355867872312E-03  1.61420833248185E-03
  6.32674311758379E-04  3.43377941253524E-03 -3.59514495501464E-04
 -2.50148982072066E-03 -2.41838434324706E-03 -2.03912891216306E-03
  6.31602252016279E-04  3.43551039467202E-03 -3.63807693984883E-04
 -2.50100901434193E-03 -2.41937121631896E-03 -2.04200650549658E-03
  1.89103935533720E-03  1.17886382564652E-03  7.87512681300884E-04
 -2.29660966438949E-05 -2.19377478847441E-03  1.61777191946739E-03
  1.89093881227464E-03  1.17685022840011E-03  7.85039517043469E-04
 -2.21835577579998E-05 -2.19310503602330E-03  1.61520435076433E-03
 Cartesian forces (hart/bohr); max,rms= 1.25456E-02 6.07042E-03 (free atoms)
 -1.94475335624262E-03 -1.03276102715868E-02  4.08133017257757E-03
  2.78182624517033E-03  9.42327249573993E-03  4.93864097518883E-03
 -1.57542994572422E-03 -7.84929630839972E-03 -4.46083611121169E-03
  3.46580369240539E-04  9.68414491681560E-03 -4.32776036010709E-03
 -1.89418929979185E-03 -9.89665825672378E-03  4.83877703781585E-03
  2.46595056407849E-03  1.01560414352424E-02  4.16409457270728E-03
 -9.60417604437822E-04 -9.26368690079823E-03 -3.99992496327677E-03
 -3.62410594455949E-04  8.75307509209479E-03 -5.06726250668098E-03
 -1.59385327410457E-03 -9.51036174377315E-03  3.96808401128004E-03
  2.61149594918970E-03  9.60575428913528E-03  5.25510123126127E-03
 -1.33052105678143E-03 -8.64310886090576E-03 -4.01000456508205E-03
 -1.09888786917613E-03  9.45206615746253E-03 -6.55523767499336E-03
 -8.60944695633360E-04 -1.25455799060096E-02  4.08401748145287E-03
  5.30513401916168E-03  9.23650585773629E-03  5.23912917752924E-03
 -1.67001420960155E-03 -7.82551488983195E-03 -4.08037103202056E-03
  3.01432212091628E-04  8.61174981434663E-03 -4.96081927182233E-03
 -5.19031597914087E-04 -9.64868259298895E-03  3.66239841576637E-03
  1.90969103980353E-03  8.69674660475539E-03  5.24913941510720E-03
 -4.28563265254889E-04 -9.22412349639032E-03 -5.07480017541630E-03
 -1.58616203116565E-03  9.59208606574407E-03 -6.05763959328715E-03
 -1.30111290693325E-03 -1.12480896505041E-02  5.09388164931364E-03
  3.86741987940677E-03  9.75175301199140E-03  6.43336017114690E-03
 -3.20758740838667E-04 -7.18026733326528E-03 -3.84849771378180E-03
 -3.27864805074845E-04  9.19322633875018E-03 -5.79079100501532E-03
 -7.78184123444883E-04 -1.11849365941705E-02  4.10704661452448E-03
  2.37117299739568E-03  9.08947493242791E-03  5.30318439017949E-03
 -1.10164457946382E-03 -7.81087321767780E-03 -2.37540852626730E-03
  2.01036929050990E-03  7.90198778296578E-03  2.87898370620960E-04
 -8.11408024131732E-04 -5.64007019445642E-03  1.74326277303074E-03
 -1.97618868614695E-03  8.87419119299201E-03  4.57767731726289E-04
 -3.33774314041127E-04 -9.66881505235502E-03 -2.92312533037455E-03
 -1.19495758568883E-03  9.44559928163718E-03 -5.37463536189178E-03
 
 At the end of Moldyn step     1, POT.En.= -6.61326147353513E+01 Ha.
                              KIN+POT.En.= -5.79517842166860E+01 Ha.
================================================================================

 ----iterations are completed or convergence reached----

 Mean square residual over all n,k,spin=   9.5717E-12; max=  2.5222E-10
   0.5000  0.5000  0.5000    1  2.52225E-10 kpt; spin; max resid(k); each band:
 1.75E-12 3.22E-12 2.84E-12 3.10E-12 2.60E-12 2.18E-12 1.70E-12 1.66E-12
 1.79E-12 2.44E-12 2.77E-12 1.46E-12 1.78E-12 1.91E-12 2.30E-12 1.56E-12
 1.71E-12 1.94E-12 1.69E-12 2.31E-12 1.82E-12 2.20E-12 2.60E-12 1.79E-12
 2.27E-12 2.39E-12 1.84E-12 1.98E-12 2.22E-12 1.45E-12 1.86E-12 1.74E-12
 1.55E-12 1.33E-12 1.66E-12 1.94E-12 1.17E-12 1.26E-12 1.23E-12 1.43E-12
 1.83E-12 1.63E-12 1.36E-12 1.09E-12 1.32E-12 1.13E-12 1.70E-12 1.27E-12
 1.47E-12 1.62E-12 1.67E-12 1.52E-12 1.20E-12 1.01E-12 1.36E-12 1.14E-12
 1.70E-12 4.06E-12 2.34E-12 7.86E-12 1.59E-11 3.51E-11 1.93E-10 2.52E-10
 reduced coordinates (array xred) for   32 atoms
       0.005992314096      0.012851286930      0.000608640419
       0.246532715618      0.244400202983     -0.003851037078
       0.260102599939      0.006610523370      0.254875728407
       0.001359449585      0.244211538698      0.258990348435
       0.004892940499      0.012152248587      0.499560053016
       0.244789340540      0.242136060341      0.495759197851
       0.260468623412      0.006576472192      0.755003689352
       0.002210558809      0.245256365639      0.757523892552
       0.004658477301      0.513679198959      0.001731841454
       0.245784665365      0.742809660767     -0.005079867879
       0.259455705101      0.503968094078      0.255849295369
       0.002779706368      0.746010046287      0.259907912642
       0.002765248686      0.515175961232      0.502086451077
       0.242491256687      0.743423378467      0.497075944369
       0.260230338303      0.504617448032      0.753959394020
       0.001225077705      0.746240749942      0.759951390207
       0.503285099613      0.011683496871      0.003486404457
       0.745604773241      0.244817016205     -0.004491937769
       0.758318083724      0.007960659106      0.257072042977
       0.503559564880      0.245213432790      0.256639359012
       0.504846018658      0.014398497538      0.499377574698
       0.744246563088      0.245811174555      0.494883432318
       0.757882019447      0.005343957638      0.753792419090
       0.504571214455      0.243743308007      0.760310874416
       0.504066540037      0.512030072960     -0.000656052722
       0.746241931810      0.746082099380     -0.003422806433
       0.756674355367      0.513198137079      0.253282291888
       0.494524723544      0.745818288167      0.246101457794
       0.507176664398      0.506858291529      0.503967736836
       0.754048551516      0.745828722030      0.509329497957
       0.758442175256      0.507475614534      0.754884627678
       0.503659858723      0.743462149246      0.755900689956
 rms dE/dt=  9.2270E-02; max dE/dt=  1.9069E-01; dE/dt below (all hartree)
    1       0.029562251239      0.156979768553     -0.062034405939
    2      -0.042281758703     -0.143233649510     -0.075065530139
    3       0.023948535399      0.119309396313      0.067806521574
    4      -0.005266021389     -0.147198910310      0.065783770157
    5       0.028793677581      0.150429297928     -0.073547598291
    6      -0.037480448350     -0.154371737390     -0.063292424821
    7       0.014600347811      0.140808133317      0.060800672126
    8       0.005510641260     -0.133046648975      0.077024202785
    9       0.024228569990      0.144557590931     -0.060313064288
   10      -0.039692738204     -0.146007372770     -0.079875726031
   11       0.020225920287      0.131375347111      0.060953882073
   12       0.016705095835     -0.143671313168      0.099641425344
   13       0.013088359597      0.190692906997     -0.062075253034
   14      -0.080636036867     -0.140394796612     -0.079632950815
   15       0.025386216210      0.118947918751      0.062023452370
   16      -0.004579769400     -0.130898504753      0.075406265615
   17       0.007891280512      0.146660067839     -0.055666643236
   18      -0.029025303581     -0.132190455967     -0.079785106426
   19       0.006516161856      0.140206769570      0.077138775350
   20       0.024111663098     -0.145799615774      0.092077934502
   21       0.019778916409      0.170971055113     -0.077425188386
   22      -0.058782781943     -0.148226553357     -0.097785261918
   23       0.004877533085      0.109140155891      0.058498977933
   24       0.004985545261     -0.139736947924      0.088021835960
   25       0.011830398900      0.170011128657     -0.062425295857
   26      -0.036039829337     -0.138159926548     -0.080606590047
   27       0.016746997832      0.118725365334      0.036108022283
   28      -0.030555612992     -0.120110121876     -0.004374242550
   29       0.012335402191      0.085729159381     -0.026495781466
   30       0.030040068253     -0.134887613708     -0.006956256839
   31       0.005075369797      0.146966081221      0.044433317705
   32       0.018165355526     -0.143573016656      0.081696270184
 
 cartesian coordinates (angstrom) at end:
    1      0.04819913987573     0.10336924373711     0.00489559529037
    2      1.98298431192361     1.96583146026066    -0.03097579195819
    3      2.09213358915346     0.05317170219876     2.05009128161206
    4      0.01093472398767     1.96431394029877     2.08318720133050
    5      0.03935633542640     0.09774653332499     4.01820807234562
    6      1.96896148569555     1.94761984349181     3.98763591827745
    7      2.09507769660255     0.05289781176583     6.07286731773051
    8      0.01778061555922     1.97271799908064     6.09313855595270
    9      0.03747043219553     4.13177533190052     0.01393005558985
   10      1.97696737452181     5.97478472725958    -0.04085988460123
   11      2.08693029468431     4.05366412226748     2.05792216120543
   12      0.02235855028286     6.00052700759814     2.09056762312666
   13      0.02224226001744     4.14381452960781     4.03852913889789
   14      1.95047686301063     5.97972116163408     3.99822716042787
   15      2.09316105186150     4.05888719661775     6.06446753494875
   16      0.00985390464083     6.00238267096097     6.11266411772079
   17      4.04817046068329     0.09397613191396     0.02804287181921
   18      5.99726719646178     1.96918409473509    -0.03613087254663
   19      6.09952662753743     0.06403151029890     2.06775732372396
   20      4.05037812029376     1.97237266898580     2.06427703303876
   21      4.06072570297547     0.11581422230982     4.01674030917175
   22      5.98634244183478     1.97718060102567     3.98059170385108
   23      6.09601914733331     0.04298408887690     6.06312447317064
   24      4.05851531713871     1.96054772974864     6.11555562664749
   25      4.05445597170600     4.11851059753643    -0.00527695584568
   26      6.00239217731190     6.00110656618751    -0.02753132151877
   27      6.08630530907237     4.12790591376182     2.03727448522151
   28      3.97770643213546     5.99898460239913     1.97951549238954
   29      4.07947223699182     4.07691140687084     4.05366124879333
   30      6.06518467269516     5.99906852710959     4.09678853987522
   31      6.10052475697242     4.08187684048944     6.07190964592228
   32      4.05118483317260     5.98003301414285     6.08008233632074

 cartesian forces (hartree/bohr) at end:
    1     -0.00194475335624    -0.01032761027159     0.00408133017258
    2      0.00278182624517     0.00942327249574     0.00493864097519
    3     -0.00157542994572    -0.00784929630840    -0.00446083611121
    4      0.00034658036924     0.00968414491682    -0.00432776036011
    5     -0.00189418929979    -0.00989665825672     0.00483877703782
    6      0.00246595056408     0.01015604143524     0.00416409457271
    7     -0.00096041760444    -0.00926368690080    -0.00399992496328
    8     -0.00036241059446     0.00875307509209    -0.00506726250668
    9     -0.00159385327410    -0.00951036174377     0.00396808401128
   10      0.00261149594919     0.00960575428914     0.00525510123126
   11     -0.00133052105678    -0.00864310886091    -0.00401000456508
   12     -0.00109888786918     0.00945206615746    -0.00655523767499
   13     -0.00086094469563    -0.01254557990601     0.00408401748145
   14      0.00530513401916     0.00923650585774     0.00523912917753
   15     -0.00167001420960    -0.00782551488983    -0.00408037103202
   16      0.00030143221209     0.00861174981435    -0.00496081927182
   17     -0.00051903159791    -0.00964868259299     0.00366239841577
   18      0.00190969103980     0.00869674660476     0.00524913941511
   19     -0.00042856326525    -0.00922412349639    -0.00507480017542
   20     -0.00158616203117     0.00959208606574    -0.00605763959329
   21     -0.00130111290693    -0.01124808965050     0.00509388164931
   22      0.00386741987941     0.00975175301199     0.00643336017115
   23     -0.00032075874084    -0.00718026733327    -0.00384849771378
   24     -0.00032786480507     0.00919322633875    -0.00579079100502
   25     -0.00077818412344    -0.01118493659417     0.00410704661452
   26      0.00237117299740     0.00908947493243     0.00530318439018
   27     -0.00110164457946    -0.00781087321768    -0.00237540852627
   28      0.00201036929051     0.00790198778297     0.00028789837062
   29     -0.00081140802413    -0.00564007019446     0.00174326277303
   30     -0.00197618868615     0.00887419119299     0.00045776773173
   31     -0.00033377431404    -0.00966881505236    -0.00292312533037
   32     -0.00119495758569     0.00944559928164    -0.00537463536189
 frms,max,avg= 6.0704206E-03 1.2545580E-02  -1.316E-07 -6.081E-09 -1.193E-07 h/b

 cartesian forces (eV/Angstrom) at end:
    1     -0.10000322834228    -0.53106701932372     0.20987041460984
    2      0.14304724262916     0.48456410582764     0.25395510415601
    3     -0.08101185689887    -0.40362700418303    -0.22938539264890
    4      0.01782187735676     0.49797870372988    -0.22254236307818
    5     -0.09740312027874    -0.50890657794508     0.24881989454179
    6      0.12680426366085     0.52224459592370     0.21412633075376
    7     -0.04938665393853    -0.47635788541420    -0.20568439086146
    8     -0.01863590018482     0.45010117314983    -0.26056908856810
    9     -0.08195922243956    -0.48904241457011     0.20404706344257
   10      0.13428850752896     0.49394769598556     0.27022814317542
   11     -0.06841813674131    -0.44444648275311    -0.20620270477397
   12     -0.05650708052568     0.48604473529605    -0.33708384044999
   13     -0.04427155181973    -0.64511959215792     0.21000860157438
   14      0.27280093231444     0.47496018012310     0.26940682723254
   15     -0.08587557481341    -0.40240411459464    -0.20982109362431
   16      0.01550026600482     0.44283393590567    -0.25509555790834
   17     -0.02668967519015    -0.49615515790295     0.18832807969022
   18      0.09820025172017     0.44720464616172     0.26992157429342
   19     -0.02203760694734    -0.47432345356592    -0.26095669103979
   20     -0.08156372286560     0.49324484775011    -0.31149632086669
   21     -0.06690590902618    -0.57839996733933     0.26193789978029
   22      0.19887070617686     0.50145525141545     0.33081664784800
   23     -0.01649407597108    -0.36922415450896    -0.19789768939627
   24     -0.01685948444930     0.47273465799927    -0.29777441612227
   25     -0.04001583251644    -0.57515250693888     0.21119280709108
   26      0.12193060571740     0.46739954671435     0.27270067837135
   27     -0.05664883625397    -0.40165120961621    -0.12214840534713
   28      0.10337733500540     0.40633650847354     0.01480432796486
   29     -0.04172427400911    -0.29002404120409     0.08964216700919
   30     -0.10161969783665     0.45632921284189     0.02353936084317
   31     -0.01716336358783    -0.49719041048375    -0.15031313299869
   32     -0.06144718347825     0.48571219520414    -0.27637483469379
 frms,max,avg= 3.1215354E-01 6.4511959E-01  -6.767E-06 -3.127E-07 -6.132E-06 e/A
 length scales= 15.200000000000 15.200000000000 15.200000000000 bohr
              =  8.043493566160  8.043493566160  8.043493566160 angstroms
 Fermi energy (hartree) =   0.27376
 Eigenvalues (hartree) for nkpt=   1  k points:
 kpt#   1, nband= 64, wtk=  1.00000, kpt=  0.5000  0.5000  0.5000 (reduced coord)
  -0.06257  -0.06058  -0.06034  -0.05984  -0.05946  -0.05860  -0.05844  -0.05503
   0.09499   0.09596   0.09662   0.09711   0.09768   0.09841   0.09847   0.09912
   0.09969   0.10018   0.10070   0.10106   0.10124   0.10189   0.10203   0.10217
   0.10271   0.10316   0.10369   0.10399   0.10458   0.10635   0.10751   0.10880
   0.25547   0.25697   0.25716   0.25764   0.25812   0.25837   0.25878   0.25917
   0.25989   0.26025   0.26074   0.26125   0.26154   0.26168   0.26216   0.26314
   0.26348   0.26374   0.26458   0.26500   0.26566   0.26627   0.26671   0.26802
   0.41174   0.41359   0.41391   0.41480   0.41540   0.41626   0.41753   0.41793
      occupation numbers for kpt#   1
   2.00000   2.00000   2.00000   2.00000   2.00000   2.00000   2.00000   2.00000
   2.00000   2.00000   2.00000   2.00000   2.00000   2.00000   2.00000   2.00000
   2.00000   2.00000   2.00000   2.00000   2.00000   2.00000   2.00000   2.00000
   2.00000   2.00000   2.00000   2.00000   2.00000   2.00000   2.00000   2.00000
   1.48204   1.44728   1.44276   1.43134   1.41971   1.41351   1.40350   1.39393
   1.37608   1.36701   1.35477   1.34176   1.33429   1.33062   1.31832   1.29272
   1.28384   1.27693   1.25448   1.24328   1.22543   1.20879   1.19679   1.16083
   0.00000   0.00000   0.00000   0.00000   0.00000   0.00000   0.00000   0.00000
 Eigenvalues (   eV  ) for nkpt=   1  k points:
 kpt#   1, nband= 64, wtk=  1.00000, kpt=  0.5000  0.5000  0.5000 (reduced coord)
  -1.70263  -1.64842  -1.64201  -1.62834  -1.61807  -1.59445  -1.59015  -1.49747
   2.58477   2.61127   2.62909   2.64250   2.65798   2.67791   2.67947   2.69724
   2.71266   2.72594   2.74018   2.74989   2.75484   2.77255   2.77637   2.78018
   2.79498   2.80705   2.82148   2.82983   2.84568   2.89388   2.92537   2.96065
   6.95179   6.99243   6.99762   7.01064   7.02377   7.03073   7.04188   7.05246
   7.07200   7.08184   7.09502   7.10891   7.11684   7.12072   7.13368   7.16034
   7.16952   7.17663   7.19957   7.21093   7.22893   7.24561   7.25757   7.29316
  11.20413  11.25446  11.26299  11.28715  11.30349  11.32705  11.36145  11.37236

,Min el dens=  1.2943E-02 el/bohr^3 at reduced coord.  0.7500  0.7500  0.0000
,   next min=  1.2988E-02 el/bohr^3 at reduced coord.  0.2500  0.2500  0.0000
,Max el dens=  4.0256E-02 el/bohr^3 at reduced coord.  0.1000  0.1500  0.4000
,   next max=  4.0220E-02 el/bohr^3 at reduced coord.  0.1000  0.6500  0.4000

 Eight components of total free energy (hartree) are
 kinetic= 2.63114886727934E+01 Hartree= 2.36632953788963E-01
      xc=-2.57126720845136E+01 loc psp= 3.47263448900447E+00
 nl psp = 1.55094468911549E+01 pspcore= 1.19235228414103E+00
 -kT*entropy =-4.90141086495845E-01 (internal energy=-6.56424736488555E+01 )
 Ewald  =-8.66523568552247E+01 resulting in Etotal=-6.61326147353513E+01 hartree
 Also Etotal= -1.79955993480813E+03 eV
 rms coord change=  6.1322E-03   atom, delta coord (reduced):
     1        0.002081713553      0.011313673955     -0.001189996346
     2       -0.008232684672     -0.007970434970     -0.006717100792
     3        0.006219013115      0.003887643722      0.002586543330
     4       -0.000068865608     -0.007230623399      0.005320925272
     5        0.002081679382      0.011314174723     -0.001189698313
     6       -0.008231697635     -0.007969381272     -0.006717363517
     7        0.006219674719      0.003887149363      0.002586806688
     8       -0.000069994770     -0.007230999368      0.005321565599
     9        0.002081849271      0.011312560477     -0.001191388479
    10       -0.008231781106     -0.007970096360     -0.006716659108
    11        0.006219944770      0.003888759281      0.002586346677
    12       -0.000070230416     -0.007230996506      0.005320026011
    13        0.002082812757      0.011312552368     -0.001190665937
    14       -0.008230945301     -0.007969797701     -0.006717049653
    15        0.006218963293      0.003888390690      0.002587179911
    16       -0.000068826480     -0.007232119156      0.005320474386
    17        0.002083093496      0.011313501598     -0.001192739568
    18       -0.008231407923     -0.007970165232     -0.006717023415
    19        0.006220910093      0.003887041051      0.002585659777
    20       -0.000070593425     -0.007230590253      0.005321403906
    21        0.002081661032      0.011312841968     -0.001189735717
    22       -0.008231975515     -0.007970309214     -0.006715863417
    23        0.006220231222      0.003888917511      0.002587591439
    24       -0.000070681435     -0.007231025056      0.005319571926
    25        0.002082459812      0.011314028057     -0.001189486688
    26       -0.008232556389     -0.007970409689     -0.006716534069
    27        0.002079474130      0.011314080600     -0.001192770303
    28       -0.008230371521     -0.007971670489     -0.006717614214
    29        0.006221874059      0.003887271486      0.002587581302
    30       -0.000072248979     -0.007231202513      0.005320846581
    31        0.006220744716      0.003887383924      0.002587248154
    32       -0.000070981066     -0.007229954781      0.005322152484

 Cartesian components of stress tensor (hartree/bohr^3)
  sigma(1 1)=  2.33763945E-04  sigma(3 2)=  1.60507919E-06
  sigma(2 2)=  2.52112805E-04  sigma(3 1)= -8.51088819E-06
  sigma(3 3)=  2.42764827E-04  sigma(2 1)= -2.38062200E-05

-Cartesian components of stress tensor (GPa)         [Pressure= -7.1458E+00 GPa]
- sigma(1 1)=  6.87757134E+00  sigma(3 2)=  4.72230506E-02
- sigma(2 2)=  7.41741333E+00  sigma(3 1)= -2.50398926E-01
- sigma(3 3)=  7.14238637E+00  sigma(2 1)= -7.00403033E-01
 Real(R)+Recip(G) space primitive vectors, cartesian coordinates (Bohr,Bohr^-1):
 R(1)= 15.2000000  0.0000000  0.0000000  G(1)=  0.0657895  0.0000000  0.0000000
 R(2)=  0.0000000 15.2000000  0.0000000  G(2)=  0.0000000  0.0657895  0.0000000
 R(3)=  0.0000000  0.0000000 15.2000000  G(3)=  0.0000000  0.0000000  0.0657895
 Unit cell volume ucvol=  3.5118080E+03 bohr^3

 getcut: wavevector=  0.0000  0.0000  0.0000  ngfft=  20  20  20
         ecut(hartree)=      2.000   => boxcut(ratio)=   2.06684
   4.18731229E+03                                ecore*ucvol(ha*bohr**3)
--------------------------------------------------------------------------------

 newkpt: treating     64 bands with npw=     240 for ikpt=   1
 
 setup2: Arith. and geom. avg. npw (full set) are     480.000     480.000

================================================================================

 MOLDYN STEP NUMBER   0  ------------------------------------------------------

     iter   Etot(hartree)      deltaE(h)  residm     vres2    diffor    maxfor
 ETOT  1  -66.110727119993    -6.611E+01 4.811E-04 2.887E+00 5.856E-03 7.042E-03
 ETOT  2  -66.131866791944    -2.114E-02 5.520E-05 1.338E-01 6.178E-03 1.287E-02
 ETOT  3  -66.132547782394    -6.810E-04 3.427E-05 1.402E-02 7.715E-04 1.243E-02
 ETOT  4  -66.132607792346    -6.001E-05 2.197E-05 1.764E-03 2.678E-04 1.258E-02
 ETOT  5  -66.132614802600    -7.010E-06 1.980E-06 9.161E-05 7.796E-05 1.254E-02
 ETOT  6  -66.132615165424    -3.628E-07 7.588E-07 4.251E-06 1.642E-05 1.255E-02
 ETOT  7  -66.132615181361    -1.594E-08 5.806E-08 5.946E-07 3.336E-06 1.254E-02
 ETOT  8  -66.132615183252    -1.890E-09 1.977E-08 7.925E-08 1.327E-06 1.254E-02

 At SCF step    8, forces are converged :
  for the second time, max diff in force=  1.327E-06 < toldff=  1.000E-05

 Cartesian components of stress tensor (hartree/bohr^3)
  sigma(1 1)=  2.33771422E-04  sigma(3 2)=  1.60385383E-06
  sigma(2 2)=  2.52119910E-04  sigma(3 1)= -8.51043916E-06
  sigma(3 3)=  2.42772114E-04  sigma(2 1)= -2.38073753E-05
 
 Cartesian coordinates (bohr)
  9.10706029751584E-02  1.95355657236153E-01  9.25218713522834E-03
  3.74726896549531E+00  3.71488403902046E+00 -5.85443545054945E-02
  3.95355181451671E+00  1.00467256759891E-01  3.87411727394394E+00
  2.06742796422760E-02  3.71202040288992E+00  3.93664040579900E+00
  7.43704646975923E-02  1.84730142315124E-01  7.59333730490746E+00
  3.72079974563742E+00  3.68049072868612E+00  7.53554709131174E+00
  3.95912134570015E+00  9.99577529858234E-02  1.14760587194840E+01
  3.35991448132154E-02  3.72788817530052E+00  1.15143582828783E+01
  7.08157438095479E-02  7.80792529040192E+00  2.63287974548906E-02
  3.73591861238546E+00  1.12907085341282E+01 -7.72092918836350E-02
  3.94371561014378E+00  7.66033541356198E+00  3.88891151770009E+00
  4.22598950846114E-02  1.13393383134360E+01  3.95057468259562E+00
  4.20558013041897E-02  7.83064697600467E+00  7.63171407623889E+00
  3.68589285851939E+00  1.13000495296964E+01  7.55553743548037E+00
  3.95548813453934E+00  7.67018408256697E+00  1.14601882336967E+01
  1.86350703537196E-02  1.13428598628528E+01  1.15512583970821E+01
  7.64995061064194E+00  1.77592289335519E-01  5.29737040639224E-02
  1.13331938909501E+01  3.72120215147469E+00 -6.82781703119371E-02
  1.15264465590844E+01  1.20987749769658E-01  3.90747464658319E+00
  7.65410214741941E+00  3.72725490468168E+00  3.90093211320755E+00
  7.67365002040851E+00  2.18845694505025E-01  7.59055619087283E+00
  1.13125527877698E+01  3.73632154821434E+00  7.52224486721178E+00
  1.15198212682141E+01  8.12390263469281E-02  1.14576598673035E+01
  7.66947031758057E+00  3.70490418590071E+00  1.15567026999389E+01
  7.66183498078563E+00  7.78288523183463E+00 -9.95057826383544E-03
  1.13428577158478E+01  1.13404287584829E+01 -5.20210981871347E-02
  1.15014313961899E+01  7.80062714209826E+00  3.84986736817080E+00
  7.51677370450230E+00  1.13364110631068E+01  3.74074658508469E+00
  7.70909576681577E+00  7.70423383051498E+00  7.66030951046483E+00
  1.14615220283191E+01  1.13365940363153E+01  7.74178723950749E+00
  1.15283236790824E+01  7.71361598176385E+00  1.14742548453258E+01
  7.65561589536874E+00  1.13006424295486E+01  1.14897052870821E+01
 Velocities (bohr/(atomic time unit))
  6.30949577853353E-04  3.43265352005112E-03 -3.59048854918433E-04
 -2.50085844190857E-03 -2.41667401786480E-03 -2.03827315662778E-03
  1.88798896703471E-03  1.17673865929027E-03  7.83698144867554E-04
 -2.08763121394096E-05 -2.19110420407134E-03  1.61293402408938E-03
  6.31525573303221E-04  3.43298984823407E-03 -3.57678764920699E-04
 -2.49915058050706E-03 -2.41515240123484E-03 -2.03766880376011E-03
  1.88887984089640E-03  1.17641320858008E-03  7.83661416923439E-04
 -2.15571541357191E-05 -2.19270378802643E-03  1.61384306090287E-03
  6.31717752992342E-04  3.43128436075177E-03 -3.59466820191872E-04
 -2.50019286101351E-03 -2.41641650194560E-03 -2.03828860018021E-03
  1.88851663324984E-03  1.17783309338789E-03  7.84032159444936E-04
 -2.15042253937029E-05 -2.19252381697473E-03  1.61196442334999E-03
  6.33013779147183E-04  3.42924024258554E-03 -3.59767726734036E-04
 -2.49631359051133E-03 -2.41627728722887E-03 -2.03863710767075E-03
  1.88795561316088E-03  1.17742090413528E-03  7.83952441471233E-04
 -1.94039871827608E-05 -2.19289766892640E-03  1.61406822296831E-03
  6.33261102879829E-04  3.43263433677282E-03 -3.61672222351982E-04
 -2.49893861764445E-03 -2.41750637254398E-03 -2.03761302279823E-03
  1.88979436142520E-03  1.17504593159464E-03  7.82374860156149E-04
 -2.19859509944744E-05 -2.19151886027228E-03  1.61411047071030E-03
  6.31394770444848E-04  3.43015182248191E-03 -3.58494168379301E-04
 -2.49844848371255E-03 -2.41678499928351E-03 -2.03684869371713E-03
  1.89000720691098E-03  1.17882336516403E-03  7.85217236472997E-04
 -2.25220277400712E-05 -2.19247349743313E-03  1.61225181397888E-03
  6.32836562057585E-04  3.43264715630052E-03 -3.58826434766116E-04
 -2.50058466900631E-03 -2.41727997934738E-03 -2.03798289323212E-03
  6.30217022974481E-04  3.43441543692308E-03 -3.64418560790628E-04
 -2.49916278094999E-03 -2.41885158478080E-03 -2.03975183703316E-03
  1.89034911040587E-03  1.17810009387805E-03  7.86810968379362E-04
 -2.41621488069538E-05 -2.19259454523717E-03  1.61546276265935E-03
  1.89013513450457E-03  1.17544280100121E-03  7.85297398972314E-04
 -2.28811775944299E-05 -2.19107525596102E-03  1.61475826272551E-03
 Cartesian forces (hart/bohr); max,rms= 1.25444E-02 6.07034E-03 (free atoms)
 -1.94468250380714E-03 -1.03280245223283E-02  4.08134858705331E-03
  2.78246613793384E-03  9.42320514327828E-03  4.93841664204264E-03
 -1.57465884616507E-03 -7.84881712408100E-03 -4.46048414529055E-03
  3.46026964753523E-04  9.68388628596075E-03 -4.32736111257065E-03
 -1.89408018960719E-03 -9.89675245320006E-03  4.83782757554462E-03
  2.46614511979033E-03  1.01557320178816E-02  4.16399199895004E-03
 -9.60083142673925E-04 -9.26346663619846E-03 -3.99984401549409E-03
 -3.62236776011283E-04  8.75364548024318E-03 -5.06720811957447E-03
 -1.59400181453351E-03 -9.51056388020789E-03  3.96806311165561E-03
  2.61185134284983E-03  9.60585224725765E-03  5.25484370348202E-03
 -1.33048785873674E-03 -8.64373057053985E-03 -4.00979823956207E-03
 -1.09919158869931E-03  9.45184475383675E-03 -6.55428932791641E-03
 -8.61220262020116E-04 -1.25443931425732E-02  4.08344159777279E-03
  5.30491799195096E-03  9.23618076572763E-03  5.23926826141837E-03
 -1.66908037813140E-03 -7.82548869180464E-03 -4.08039125788001E-03
  3.00830063068966E-04  8.61164897781105E-03 -4.96077711464404E-03
 -5.19972705261830E-04 -9.64853168460550E-03  3.66290594537290E-03
  1.90969256037754E-03  8.69734557249586E-03  5.24928729814050E-03
 -4.28761378160028E-04 -9.22337566136637E-03 -5.07390965233695E-03
 -1.58604038162911E-03  9.59115340644982E-03 -6.05733590309455E-03
 -1.30125777006548E-03 -1.12479692580886E-02  5.09308340822220E-03
  3.86733939033305E-03  9.75136510687827E-03  6.43232085355830E-03
 -3.21035847887719E-04 -7.18089223566512E-03 -3.84881831903822E-03
 -3.28229021651594E-04  9.19335552424539E-03 -5.79010358332559E-03
 -7.79354268194186E-04 -1.11859528144632E-02  4.10601257910174E-03
  2.37231228394792E-03  9.09032214632004E-03  5.30285682598283E-03
 -1.10083351940375E-03 -7.81138750123595E-03 -2.37467353427755E-03
  2.01033083057601E-03  7.90320235508547E-03  2.88549599003104E-04
 -8.11999009445232E-04 -5.63979704440769E-03  1.74361562205607E-03
 -1.97564074786455E-03  8.87364574471933E-03  4.57887023679874E-04
 -3.33854242633913E-04 -9.66825429561021E-03 -2.92350719964146E-03
 -1.19521043299891E-03  9.44501198818503E-03 -5.37521910839029E-03
 
 At the end of Moldyn step     0, POT.En.= -6.61326151832519E+01 Ha.
                              KIN+POT.En.= -5.79624841946883E+01 Ha.

 MOLDYN STEP NUMBER   1  ------------------------------------------------------

     iter   Etot(hartree)      deltaE(h)  residm     vres2    diffor    maxfor
 ETOT  1  -66.038200774907    -6.604E+01 9.719E-05 2.317E+00 1.275E-02 2.529E-02
 ETOT  2  -66.053358060140    -1.516E-02 2.422E-06 1.135E-01 5.623E-03 3.054E-02
 ETOT  3  -66.053733210492    -3.752E-04 1.300E-06 7.558E-03 6.843E-04 3.013E-02
 ETOT  4  -66.053757578132    -2.437E-05 9.907E-07 4.433E-05 1.216E-04 3.017E-02
 ETOT  5  -66.053757712002    -1.339E-07 3.297E-07 2.182E-06 9.306E-06 3.016E-02
 ETOT  6  -66.053757718107    -6.104E-09 4.122E-07 1.740E-07 2.861E-06 3.016E-02

 At SCF step    6, forces are converged :
  for the second time, max diff in force=  2.861E-06 < toldff=  1.000E-05

 Cartesian components of stress tensor (hartree/bohr^3)
  sigma(1 1)=  1.18435469E-04  sigma(3 2)=  6.92116288E-06
  sigma(2 2)=  1.83334247E-04  sigma(3 1)= -3.12506381E-05
  sigma(3 3)=  1.57481015E-04  sigma(2 1)= -1.01331499E-04
 
 Cartesian coordinates (bohr)
  1.22568761740540E-01  3.66725856114033E-01 -8.59643565614570E-03
  3.62229686184119E+00  3.59428983050675E+00 -1.60332410344766E-01
  4.04791134674259E+00  1.59104720651864E-01  3.91318891392176E+00
  1.96393613615999E-02  3.60271131017157E+00  4.01717722300589E+00
  1.05898709272793E-01  3.56128118207156E-01  7.57557641222315E+00
  3.59590499588279E+00  3.55999121787781E+00  7.43376957142713E+00
  4.05354104081176E+00  1.58542991597762E-01  1.15151402300470E+01
  3.25121841965453E-02  3.61847546169101E+00  1.15949217490138E+01
  1.02361223739598E-01  7.97924780674605E+00  8.45639729535941E-03
  3.61097545167016E+00  1.11701318433126E+01 -1.78990078034890E-01
  4.03810773118719E+00  7.71900739675547E+00  3.92801131240659E+00
  4.11568514968884E-02  1.12299523428309E+01  4.03100642328669E+00
  7.36847058884182E-02  8.00179018289824E+00  7.61382956304975E+00
  3.56121210452760E+00  1.11794704045657E+01  7.45373882811104E+00
  4.04984359938653E+00  7.72885625158385E+00  1.14992822484115E+01
  1.76726196599209E-02  1.12334338464146E+01  1.16318358262218E+01
  7.68160055408127E+00  3.48978798084811E-01  3.49832783505701E-02
  1.12082955973222E+01  3.60054787779995E+00 -1.70025318807885E-01
  1.16209254835500E+01  1.79505643428216E-01  3.94646453236457E+00
  7.65296264448672E+00  3.61792272238469E+00  3.98148378613670E+00
  7.70518679118254E+00  3.90067428481493E-01  7.57276101523922E+00
  1.11877287536400E+01  3.61573013068229E+00  7.42056600148866E+00
  1.16143135727547E+01  1.39997700573169E-01  1.14968230071009E+01
  7.66833597757699E+00  3.59551416187358E+00  1.16371682316327E+01
  7.69345710510647E+00  7.95423330862484E+00 -2.77874532222228E-02
  1.12178888769447E+01  1.12197957918085E+01 -1.53785378756919E-01
  1.15329143732915E+01  7.97214939613059E+00  3.83158618289780E+00
  7.39186676038993E+00  1.12156693459919E+01  3.63876642073709E+00
  7.80359268890114E+00  7.76299550748718E+00  7.69969446630165E+00
  1.14602638139602E+01  1.12271898346034E+01  7.82257210878660E+00
  1.16228220542284E+01  7.77214241248239E+00  1.15134455096556E+01
  7.65444156389093E+00  1.11913287133422E+01  1.15703066853341E+01
 Velocities (bohr/(atomic time unit))
  6.25728785951111E-04  3.41445583664956E-03 -3.51667290714333E-04
 -2.49362098008776E-03 -2.40039688687610E-03 -2.02977050243851E-03
  1.88608032283070E-03  1.16415088973261E-03  7.76013880426154E-04
 -2.09825585998001E-05 -2.17557697487741E-03  1.60433092920132E-03
  6.26031931762919E-04  3.41483974949397E-03 -3.48967241270239E-04
 -2.49224572897735E-03 -2.39777438774943E-03 -2.02995047695723E-03
  1.88745385482507E-03  1.16222146430157E-03  7.76837527111844E-04
 -2.26888584400928E-05 -2.17844609772448E-03  1.60427826034724E-03
  6.26849748419642E-04  3.41438668759706E-03 -3.51943297037983E-04
 -2.49279288363476E-03 -2.39981257700899E-03 -2.02916243131417E-03
  1.88562547975899E-03  1.16307760094090E-03  7.77839882884144E-04
 -2.32113315037618E-05 -2.17705828723831E-03  1.60074196808287E-03
  6.29360889846513E-04  3.40752909648296E-03 -3.52360956593136E-04
 -2.48513932151591E-03 -2.40046179488749E-03 -2.03000394969408E-03
  1.88576306573071E-03  1.16492888918762E-03  7.76964041925510E-04
 -2.01988225821765E-05 -2.17837981950563E-03  1.60460134444889E-03
  6.29951453137920E-04  3.41538932359464E-03 -3.53897725677261E-04
 -2.49319765616510E-03 -2.40256856527649E-03 -2.02854176408689E-03
  1.88899141942828E-03  1.16105760738051E-03  7.73989374889110E-04
 -2.47990851937896E-05 -2.17603631575683E-03  1.60309234375974E-03
  6.26908662806773E-04  3.41101096556184E-03 -3.49094183679712E-04
 -2.48982461870023E-03 -2.39990526357404E-03 -2.02595779604967E-03
  1.88941732900743E-03  1.16687456443244E-03  7.78165035313343E-04
 -2.35536639196798E-05 -2.17729550857026E-03  1.60164739493306E-03
  6.29631617294928E-04  3.41238415920133E-03 -3.52710619000715E-04
 -2.49454075929547E-03 -2.40155940588165E-03 -2.02945664844675E-03
  6.28154348698384E-04  3.42286277272164E-03 -3.67284036040600E-04
 -2.49563889176209E-03 -2.40504792495821E-03 -2.03839711559888E-03
  1.88855951785428E-03  1.17017404094373E-03  7.89086343988110E-04
 -2.65013310329998E-05 -2.17902509940153E-03  1.61659640807908E-03
  1.88924671727541E-03  1.16003881131325E-03  7.80422293153560E-04
 -2.46984117118299E-05 -2.17615811994440E-03  1.60467127511820E-03
 Cartesian forces (hart/bohr); max,rms= 3.01621E-02 1.45448E-02 (free atoms)
 -8.33395745422136E-03 -2.54662022677891E-02  1.04340426160476E-02
  1.14489317106626E-02  2.26074031411237E-02  1.17825772508071E-02
 -2.18774961510960E-03 -1.69086140233518E-02 -1.06642361711334E-02
 -5.62445930151300E-04  2.08713851053284E-02 -1.26050418443038E-02
 -8.92135690653128E-03 -2.58038575365684E-02  1.22940905530563E-02
  1.11108840676133E-02  2.40407232796302E-02  1.10139370052602E-02
 -1.85275651523398E-03 -1.86495818170522E-02 -9.43219808346256E-03
 -1.87164074207632E-03  1.93039687809769E-02 -1.37572290497752E-02
 -7.99057371223491E-03 -2.37260572448565E-02  1.08266143625136E-02
  1.19392753022347E-02  2.30676817790343E-02  1.26928364200552E-02
 -4.36488330347672E-03 -2.03784210708683E-02 -8.17962470904079E-03
 -2.26671617414560E-03  2.09820407618591E-02 -1.55313737364734E-02
 -6.33276972050114E-03 -3.01621269390695E-02  1.04815390965867E-02
  1.66716498324884E-02  2.18862118929548E-02  1.17384753199568E-02
 -2.65187175717331E-03 -1.67435573767229E-02 -9.67530292696899E-03
 -1.87196063604289E-03  1.99577954306943E-02 -1.36710108389016E-02
 -5.99873687687771E-03 -2.42714369862324E-02  1.16255301743312E-02
  9.37753022461260E-03  2.06983127604927E-02  1.25903640440359E-02
 -1.15831789968123E-03 -1.82894695547811E-02 -1.14303739102034E-02
 -3.95583769656933E-03  2.08762065340935E-02 -1.56263370529390E-02
 -7.53198386087552E-03 -2.64018320861024E-02  1.33932947207998E-02
  1.30916313102567E-02  2.34647917155840E-02  1.49872398884735E-02
 -8.46866786130424E-04 -1.63194485977918E-02 -1.00323974680785E-02
 -1.70877712304872E-03  2.06748297064954E-02 -1.50796514183017E-02
 -5.53336151602544E-03 -2.86715173432313E-02  7.91917873115134E-03
  9.51092281323110E-03  2.18453296350626E-02  1.14645485796835E-02
 -2.96460961868563E-03 -1.49096048339729E-02 -3.26968878899208E-03
  4.91508275617202E-03  1.92611643883325E-02  2.36979105538396E-03
 -2.71619038986992E-03 -9.94629651254670E-03  2.72599562642133E-03
 -2.63379679405581E-03  1.78299346154270E-02  1.76551454567638E-03
 -1.42138673916375E-03 -2.06297336104432E-02 -6.67454898099272E-03
 -2.38736024938951E-03  1.99099782742908E-02 -1.44765550106733E-02
 
 At the end of Moldyn step     1, POT.En.= -6.60537577181069E+01 Ha.
                              KIN+POT.En.= -5.79651704141959E+01 Ha.
================================================================================

 ----iterations are completed or convergence reached----

 Mean square residual over all n,k,spin=   7.2589E-09; max=  4.1221E-07
   0.5000  0.5000  0.5000    1  4.12212E-07 kpt; spin; max resid(k); each band:
 4.22E-12 7.15E-12 3.55E-12 8.17E-12 5.35E-12 3.51E-12 6.30E-12 5.70E-12
 5.04E-12 8.32E-12 6.29E-12 6.11E-12 6.88E-12 4.03E-12 5.83E-12 4.60E-12
 6.42E-12 7.29E-12 4.26E-12 7.03E-12 3.50E-12 7.36E-12 6.22E-12 5.19E-12
 5.35E-12 4.20E-12 4.27E-12 4.14E-12 5.09E-12 4.34E-12 7.27E-12 5.78E-12
 3.55E-12 4.04E-12 4.35E-12 3.21E-12 4.00E-12 5.11E-12 5.14E-12 4.07E-12
 2.86E-12 2.81E-12 3.47E-12 4.58E-12 3.59E-12 3.76E-12 3.73E-12 4.15E-12
 3.46E-12 3.16E-12 2.68E-12 2.58E-12 3.54E-12 2.89E-12 2.92E-12 3.43E-12
 5.22E-12 7.43E-12 2.04E-11 6.36E-11 1.09E-10 1.74E-10 5.17E-08 4.12E-07
 reduced coordinates (array xred) for   32 atoms
       0.008063734325      0.024126701060     -0.000565554977
       0.238309004068      0.236466436218     -0.010548184891
       0.266309957023      0.010467415832      0.257446639074
       0.001292063247      0.237020480932      0.264287975198
       0.006967020347      0.023429481461      0.498393185015
       0.236572697098      0.234209948545      0.489063787594
       0.266680331632      0.010430459974      0.757575015135
       0.002138959487      0.238057596164      0.762823799277
       0.006734291035      0.524950513602      0.000556341927
       0.237564174452      0.734877094955     -0.011775663029
       0.265664982315      0.507829433997      0.258421796869
       0.002707687598      0.738812654134      0.265197791006
       0.004847678019      0.526433564664      0.500909839674
       0.234290270035      0.735491473985      0.490377554481
       0.266437078907      0.508477384973      0.756531726869
       0.001162672346      0.739041700422      0.765252356988
       0.505368457505      0.022959131453      0.002301531470
       0.737387868245      0.236878149855     -0.011185876237
       0.764534571286      0.011809581804      0.259635824498
       0.503484384506      0.238021231736      0.261939722772
       0.506920183630      0.025662330821      0.498207961529
       0.736034786424      0.237876982282      0.488195131677
       0.764099577155      0.009210375038      0.756369934678
       0.504495787998      0.236546984334      0.765603173134
       0.506148493757      0.523304822936     -0.001828121923
       0.738019005062      0.738144459987     -0.010117459129
       0.758744366664      0.524483512903      0.252078038349
       0.486307023710      0.737872983289      0.239392527680
       0.513394255849      0.510723388650      0.506558846467
       0.753964724603      0.738630910171      0.514642901894
       0.764659345673      0.511325158716      0.757463520372
       0.503581681835      0.736271625878      0.761204387193
 rms dE/dt=  2.2108E-01; max dE/dt=  4.5846E-01; dE/dt below (all hartree)
    1       0.126677787152      0.387082534982     -0.158595879487
    2      -0.174022128154     -0.343636267233     -0.179093605935
    3       0.033255427998      0.257007193667      0.162097958078
    4       0.008550811986     -0.317248793089      0.191598204311
    5       0.135606258827      0.392214895068     -0.186868608129
    6      -0.168883803980     -0.365422733339     -0.167410274203
    7       0.028163532879      0.283469904131      0.143370979146
    8       0.028450573127     -0.293424064959      0.209111449834
    9       0.121458354274      0.360632330634     -0.164562970033
   10      -0.181475350746     -0.350632502530     -0.192929545308
   11       0.066347860061      0.309748260789      0.124331863855
   12       0.034455719695     -0.318930759069      0.236078449072
   13       0.096259733599      0.458460589986     -0.159317825991
   14      -0.253407443606     -0.332674160261     -0.178423256586
   15       0.040310084557      0.254498332638      0.147066172767
   16       0.028455435516     -0.303362230035      0.207800933028
   17       0.091182434376      0.368922102702     -0.176706490373
   18      -0.142536825566     -0.314618093448     -0.191371965192
   19       0.017608065923      0.277996197744      0.173743251712
   20       0.060130366836     -0.317322078806      0.237521891482
   21       0.114487788533      0.401304108220     -0.203576511479
   22      -0.198991162068     -0.356668573565     -0.227804478028
   23       0.012874008997      0.248051879198      0.152494009792
   24       0.025975046118     -0.314261151027      0.229212269835
   25       0.084108728891      0.435803324129     -0.120369948436
   26      -0.144564392913     -0.332052749941     -0.174259570134
   27       0.045063700052      0.226622253988      0.049700837870
   28      -0.074707624046     -0.292773438191     -0.036019255765
   29       0.041287727774      0.151179967502     -0.041433565244
   30       0.040035345118     -0.271018745643     -0.026834252817
   31       0.021606712283      0.313568211390      0.101454712788
   32       0.036289509639     -0.302635409257      0.220045204439
 
 cartesian coordinates (angstrom) at end:
    1      0.06486059516265     0.19406296474985    -0.00454903782185
    2      1.91683694098297     1.90201625832864    -0.08484425730625
    3      2.14206242591514     0.08419459190190     2.07077038501963
    4      0.01039270241813     1.90647271342743     2.12579862811660
    5      0.05603918333555     0.18845488339000     4.00882237708358
    6      1.90287096703328     1.88386621424910     3.93378142895330
    7      2.14504153170624     0.08389733768923     6.09354976011928
    8      0.01720470686886     1.91481474311970     6.13576832160007
    9      0.05416722661669     4.22243607870777     0.00447493271303
   10      1.91084590875465     5.91097918518709    -0.09471746980790
   11      2.13687457600428     4.08472278506211     2.07861406047014
   12      0.02177926777754     5.94263483012128     2.13311672571422
   13      0.03899226695644     4.23436499038844     4.02906507264668
   14      1.88451227963808     5.91592093896052     3.94434870445711
   15      2.14308492997499     4.08993457456515     6.08515807766816
   16      0.00935194753498     5.94447716246844     6.15530240992397
   17      4.06492793648446     0.18467162612641     0.01851235357474
   18      5.93117457399212     1.90532787432466    -0.08997352354707
   19      6.14952890524731     0.09499029526344     2.08837908389165
   20      4.04977340743367     1.91452224607667     2.10691047483953
   21      4.07740923558801     0.20641479285260     4.00733253316736
   22      5.92029106906883     1.91336197652065     3.92679440067366
   23      6.14603003275113     0.07408359235773     6.08385670321688
   24      4.05790862492064     1.90266414658338     6.15812419733283
   25      4.07120215305604     4.20919897642496    -0.01470448692190
   26      5.93625111892120     5.93726021480533    -0.08137971740794
   27      6.10295543162136     4.21867976159491     2.02758807962671
   28      3.91160741638871     5.93507659372791     1.92555225618144
   29      4.12948339382300     4.10800029069751     4.07450282244046
   30      6.06451041145299     5.94117297372958     4.13952687025314
   31      6.15053252722424     4.11284062434746     6.09265295271370
   32      4.05055601787529     5.92219608569405     6.12274259091995

 cartesian forces (hartree/bohr) at end:
    1     -0.00833395745422    -0.02546620226779     0.01043404261605
    2      0.01144893171066     0.02260740314112     0.01178257725081
    3     -0.00218774961511    -0.01690861402335    -0.01066423617113
    4     -0.00056244593015     0.02087138510533    -0.01260504184430
    5     -0.00892135690653    -0.02580385753657     0.01229409055306
    6      0.01111088406761     0.02404072327963     0.01101393700526
    7     -0.00185275651523    -0.01864958181705    -0.00943219808346
    8     -0.00187164074208     0.01930396878098    -0.01375722904978
    9     -0.00799057371223    -0.02372605724486     0.01082661436251
   10      0.01193927530223     0.02306768177903     0.01269283642006
   11     -0.00436488330348    -0.02037842107087    -0.00817962470904
   12     -0.00226671617415     0.02098204076186    -0.01553137373647
   13     -0.00633276972050    -0.03016212693907     0.01048153909659
   14      0.01667164983249     0.02188621189295     0.01173847531996
   15     -0.00265187175717    -0.01674355737672    -0.00967530292697
   16     -0.00187196063604     0.01995779543069    -0.01367101083890
   17     -0.00599873687688    -0.02427143698623     0.01162553017433
   18      0.00937753022461     0.02069831276049     0.01259036404404
   19     -0.00115831789968    -0.01828946955478    -0.01143037391020
   20     -0.00395583769657     0.02087620653409    -0.01562633705294
   21     -0.00753198386088    -0.02640183208610     0.01339329472080
   22      0.01309163131026     0.02346479171558     0.01498723988847
   23     -0.00084686678613    -0.01631944859779    -0.01003239746808
   24     -0.00170877712305     0.02067482970650    -0.01507965141830
   25     -0.00553336151603    -0.02867151734323     0.00791917873115
   26      0.00951092281323     0.02184532963506     0.01146454857968
   27     -0.00296460961869    -0.01490960483397    -0.00326968878899
   28      0.00491508275617     0.01926116438833     0.00236979105538
   29     -0.00271619038987    -0.00994629651255     0.00272599562642
   30     -0.00263379679406     0.01782993461543     0.00176551454568
   31     -0.00142138673916    -0.02062973361044    -0.00667454898099
   32     -0.00238736024939     0.01990997827429    -0.01447655501067
 frms,max,avg= 1.4544768E-02 3.0162127E-02  -1.075E-07  2.460E-07 -1.032E-07 h/b

 cartesian forces (eV/Angstrom) at end:
    1     -0.42854927984264    -1.30952464086076     0.53653998997676
    2      0.58872768027953     1.16251929392001     0.60588442204802
    3     -0.11249859711683    -0.86947580458000    -0.54837701731921
    4     -0.02892212968938     1.07324966624066    -0.64817724765641
    5     -0.45875457110434    -1.32688757114512     0.63218749096971
    6      0.57134457330100     1.23622357145143     0.56635935541592
    7     -0.09527256104783    -0.95899995901898    -0.48502307795603
    8     -0.09624362693797     0.99264988627968    -0.70742508997633
    9     -0.41089177965185    -1.22004279499151     0.55672683880082
   10      0.61394215901883     1.18618777073755     0.65269182580478
   11     -0.22445130138679    -1.04790043892379    -0.42061317179715
   12     -0.11655922043923     1.07893980831029    -0.79865526867565
   13     -0.32564407942296    -1.55099877210356     0.53898235696050
   14      0.85729061718244     1.12543415258959     0.60361660981003
   15     -0.13636471484457    -0.86098825140559    -0.49752403037668
   16     -0.09626007654546     1.02627100102828    -0.70299157176099
   17     -0.30846742171083    -1.24808734605759     0.59780873748941
   18      0.48221194390964     1.06434992933326     0.64742248489585
   19     -0.05956309525984    -0.94048224381506    -0.58777339990722
   20     -0.20341733268394     1.07349759405124    -0.80353847825602
   21     -0.38731014372165    -1.35763665571565     0.68871083622004
   22      0.67319868151404     1.20660798265506     0.77067478401644
   23     -0.04354763667950    -0.83917970333173    -0.51588656813486
   24     -0.08786884376560     1.06314238226642    -0.77542677546523
   25     -0.28453686088841    -1.47434855252517     0.40722050248301
   26      0.48907126591876     1.12333190257520     0.58953073189205
   27     -0.15244634065882    -0.76668262940328    -0.16813414077634
   28      0.25274369194885     0.99044879613222     0.12185954340911
   29     -0.13967211158543    -0.51145907943101     0.14017631707075
   30     -0.13543526296415     0.91685200951108     0.09078639904960
   31     -0.07309063752635    -1.06082344800343    -0.34321907386628
   32     -0.12276298759872     1.02381214423024    -0.74441431438842
 frms,max,avg= 7.4792199E-01 1.5509988E+00  -5.527E-06  1.265E-05 -5.306E-06 e/A
 length scales= 15.200000000000 15.200000000000 15.200000000000 bohr
              =  8.043493566160  8.043493566160  8.043493566160 angstroms
 Fermi energy (hartree) =   0.27347
 Eigenvalues (hartree) for nkpt=   1  k points:
 kpt#   1, nband= 64, wtk=  1.00000, kpt=  0.5000  0.5000  0.5000 (reduced coord)
  -0.06977  -0.06620  -0.06535  -0.06524  -0.06459  -0.06346  -0.06268  -0.05494
   0.08630   0.08840   0.08864   0.08983   0.09011   0.09142   0.09184   0.09347
   0.09489   0.09696   0.09768   0.09801   0.09884   0.09899   0.10000   0.10138
   0.10244   0.10339   0.10388   0.10472   0.10533   0.10967   0.11106   0.11401
   0.24897   0.25123   0.25172   0.25198   0.25267   0.25410   0.25439   0.25686
   0.25719   0.25867   0.25941   0.26030   0.26063   0.26156   0.26300   0.26367
   0.26523   0.26611   0.26853   0.26890   0.26989   0.27069   0.27159   0.27425
   0.40232   0.40507   0.40589   0.40713   0.40872   0.41028   0.41235   0.41308
      occupation numbers for kpt#   1
   2.00000   2.00000   2.00000   2.00000   2.00000   2.00000   2.00000   2.00000
   2.00000   2.00000   2.00000   2.00000   2.00000   2.00000   2.00000   2.00000
   2.00000   2.00000   2.00000   2.00000   2.00000   2.00000   2.00000   2.00000
   2.00000   2.00000   2.00000   2.00000   2.00000   2.00000   2.00000   2.00000
   1.61353   1.56835   1.55809   1.55260   1.53783   1.50643   1.49995   1.44279
   1.43510   1.39918   1.38090   1.35853   1.35012   1.32618   1.28872   1.27085
   1.22918   1.20535   1.13857   1.12834   1.10056   1.07811   1.05289   0.97784
   0.00001   0.00000   0.00000   0.00000   0.00000   0.00000   0.00000   0.00000
 Eigenvalues (   eV  ) for nkpt=   1  k points:
 kpt#   1, nband= 64, wtk=  1.00000, kpt=  0.5000  0.5000  0.5000 (reduced coord)
  -1.89846  -1.80132  -1.77826  -1.77536  -1.75750  -1.72671  -1.70572  -1.49505
   2.34832   2.40546   2.41203   2.44448   2.45205   2.48771   2.49905   2.54342
   2.58213   2.63855   2.65796   2.66695   2.68947   2.69367   2.72101   2.75863
   2.78752   2.81330   2.82675   2.84956   2.86631   2.98414   3.02217   3.10245
   6.77487   6.83618   6.84958   6.85666   6.87551   6.91449   6.92235   6.98964
   6.99843   7.03872   7.05881   7.08304   7.09205   7.11747   7.15654   7.17492
   7.21721   7.24110   7.30707   7.31708   7.34416   7.36595   7.39036   7.46280
  10.94774  11.02246  11.04495  11.07867  11.12191  11.16441  11.22071  11.24057

,Min el dens=  1.3293E-02 el/bohr^3 at reduced coord.  0.0000  0.7500  0.7500
,   next min=  1.3325E-02 el/bohr^3 at reduced coord.  0.7500  0.7500  0.0000
,Max el dens=  4.8806E-02 el/bohr^3 at reduced coord.  0.1000  0.1500  0.4000
,   next max=  4.8666E-02 el/bohr^3 at reduced coord.  0.1000  0.6500  0.4000

 Eight components of total free energy (hartree) are
 kinetic= 2.66266687149463E+01 Hartree= 5.90164711174170E-01
      xc=-2.57954773302395E+01 loc psp= 2.09070924748450E+00
 nl psp = 1.57262744580641E+01 pspcore= 1.19235228414103E+00
 -kT*entropy =-4.78036703175427E-01 (internal energy=-6.55757210149315E+01 )
 Ewald  =-8.60064131005021E+01 resulting in Etotal=-6.60537577181069E+01 hartree
 Also Etotal= -1.79741412627812E+03 eV
 rms coord change=  6.1105E-03   atom, delta coord (reduced):
     1        0.002072247287      0.011274355189     -0.001174251499
     2       -0.008221848925     -0.007933829507     -0.006696582621
     3        0.006207863962      0.003857727888      0.002570502630
     4       -0.000068086729     -0.007191387679      0.005298474816
     5        0.002074226617      0.011276182624     -0.001168479782
     6       -0.008216759852     -0.007927599395     -0.006695889466
[...]
              3.3234879899E-02  4.4186777501E-02  2.3609288829E-02
             -1.1435495702E-02 -3.7413200002E-02 -1.3097121830E-02
             -3.5822764993E-03  3.6558866735E-02 -3.0807168576E-02
             -1.9852855729E-02 -5.7745712327E-02  2.2500976360E-02
              3.9719983602E-02  4.1835907599E-02  2.0817823602E-02
             -4.3911624668E-03 -2.7891500376E-02 -1.7623082723E-02
             -5.6939559320E-03  3.5433445732E-02 -3.0098602108E-02
             -1.9834281557E-02 -4.7964356621E-02  2.5757709827E-02
              2.8112175067E-02  3.9983301028E-02  2.3988919010E-02
             -2.9615874133E-03 -2.9541631744E-02 -2.0739627217E-02
             -7.4911995564E-03  3.6270885347E-02 -3.2437854911E-02
             -2.2768179438E-02 -5.1029278138E-02  2.8450409147E-02
              3.2976096906E-02  4.5045342283E-02  2.7609607237E-02
             -2.3575382405E-03 -2.7642494237E-02 -1.8938913974E-02
             -4.9943417397E-03  3.6117821043E-02 -3.2371792167E-02
             -1.7476363746E-02 -5.7430173310E-02  1.4059725888E-02
              2.5632620593E-02  4.1754345461E-02  2.0771475702E-02
             -7.6983984367E-03 -2.1742231218E-02 -4.2161392635E-03
              1.1709253033E-02  3.7084137983E-02  7.6767402951E-03
             -6.1674559967E-03 -1.4459407316E-02  3.1240348607E-03
             -2.4454343238E-03  2.7638637093E-02  2.8643675268E-03
             -3.6085877014E-03 -3.4526564463E-02 -1.2060113735E-02
             -4.2920430298E-03  3.4234478546E-02 -3.0370870467E-02
    ionmov         6
      iscf         3
    istwfk      9
       kpt    5.00000000E-01  5.00000000E-01  5.00000000E-01
   kptrlen    1.52000000E+01
    kptopt         1
  kptrlatt    1  0  0   0  1  0   0  0  1
     mkmem         1
     natom        32
     nband        64
     ngfft        20      20      20
      nkpt         1
     nline         6
     nstep        30
      nsym         1
     ntime         1
     ntypat         1
       occ    2.000000  2.000000  2.000000  2.000000  2.000000  2.000000
              2.000000  2.000000  2.000000  2.000000  2.000000  2.000000
              2.000000  2.000000  2.000000  2.000000  2.000000  2.000000
              2.000000  2.000000  2.000000  2.000000  2.000000  2.000000
              2.000000  2.000000  2.000000  2.000000  2.000000  2.000000
              2.000000  2.000000  1.741020  1.700415  1.700025  1.676449
              1.668097  1.634773  1.613280  1.533576  1.469731  1.428759
              1.402880  1.375119  1.357373  1.328958  1.257619  1.247136
              1.151002  1.109028  1.005035  0.995402  0.978372  0.948293
              0.895249  0.782311  0.000027  0.000019  0.000015  0.000013
              0.000009  0.000007  0.000005  0.000004
    occopt         7
    prtvol         1
    shiftk    5.00000000E-01  5.00000000E-01  5.00000000E-01
    strten   -8.3462801790E-05  4.6569466229E-05  1.6923375063E-05
              2.5205739123E-05 -6.2484589930E-05 -2.3494401719E-04
    timopt        -2
    toldff    1.00000000E-05
      type    1  1  1  1  1  1  1  1  1  1  1  1  1  1  1  1  1  1  1  1
              1  1  1  1  1  1  1  1  1  1  1  1
    useria         1
    userib         3
    useric         2
    userra    2.00000000E+00
       vel    6.1044137605E-04  3.3775120110E-03 -3.3516953661E-04
             -2.4725283445E-03 -2.3683927565E-03 -2.0136731423E-03
              1.8850364056E-03  1.1421677595E-03  7.6075708497E-04
             -2.2533195579E-05 -2.1486115056E-03  1.5855324424E-03
              6.0904398007E-04  3.3769407957E-03 -3.3063880632E-04
             -2.4726112939E-03 -2.3646637488E-03 -2.0153861178E-03
              1.8860980543E-03  1.1381345240E-03  7.6380887818E-04
             -2.5999512273E-05 -2.1524787056E-03  1.5835073955E-03
              6.1120599707E-04  3.3807796791E-03 -3.3511793192E-04
             -2.4707589907E-03 -2.3672352434E-03 -2.0116059524E-03
              1.8792692671E-03  1.1336472488E-03  7.6720715043E-04
             -2.6583001213E-05 -2.1487032268E-03  1.5791724299E-03
              6.1577518189E-04  3.3662146493E-03 -3.3570211169E-04
             -2.4596496722E-03 -2.3699141495E-03 -2.0141289310E-03
              1.8839464914E-03  1.1429005962E-03  7.6356635617E-04
             -2.5399134194E-05 -2.1515116813E-03  1.5831877188E-03
              6.1656149123E-04  3.3804193878E-03 -3.3394599070E-04
             -2.4765635795E-03 -2.3727303542E-03 -2.0116310057E-03
              1.8880474695E-03  1.1386530742E-03  7.5871979254E-04
             -3.0892481915E-05 -2.1486875791E-03  1.5791744381E-03
              6.1227520647E-04  3.3748650663E-03 -3.2840484584E-04
             -2.4684970470E-03 -2.3663059695E-03 -2.0057944937E-03
              1.8885760307E-03  1.1442772172E-03  7.6289713500E-04
             -2.6089596882E-05 -2.1495144320E-03  1.5794769828E-03
              6.1778027766E-04  3.3697366806E-03 -3.4221666871E-04
             -2.4775784458E-03 -2.3703402815E-03 -2.0142069684E-03
              6.2411919550E-04  3.4053195601E-03 -3.7047680488E-04
             -2.4890273128E-03 -2.3769329022E-03 -2.0355417213E-03
              1.8847403455E-03  1.1585241054E-03  7.9276369181E-04
             -2.7887725133E-05 -2.1570935867E-03  1.6212605884E-03
              1.8874970592E-03  1.1333918860E-03  7.7064532271E-04
             -2.7391369050E-05 -2.1506649712E-03  1.5823200138E-03
    xangst    8.1359020467E-02  2.8413119902E-01 -1.3747221836E-02
              1.8510032392E+00  1.8387262501E+00 -1.3845068784E-01
              2.1920354129E+00  1.1483465933E-01  2.0911742376E+00
              9.8306901799E-03  1.8490774827E+00  2.1682129137E+00
              7.2502532357E-02  2.7853044398E-01  3.9996610140E+00
              1.8369703695E+00  1.8206096635E+00  3.8800945821E+00
              2.1950323197E+00  1.1443002137E-01  6.1140125244E+00
              1.6585052100E-02  1.8573830495E+00  6.1781039903E+00
              7.0660606606E-02  4.3126100551E+00 -4.7306584503E-03
              1.8450049258E+00  5.8477071728E+00 -1.4828621106E-01
              2.1868017335E+00  4.1152091337E+00  2.0990931804E+00
              2.1108938804E-02  5.8852749585E+00  2.1753803692E+00
              5.5531924868E-02  4.3243124438E+00  4.0198770186E+00
              1.8188003127E+00  5.8525968123E+00  3.8907680546E+00
              2.1930444821E+00  4.1205680114E+00  6.1056079034E+00
              8.7129766602E-03  5.8870398163E+00  6.1976200688E+00
              4.0814921327E+00  2.7480389109E-01  9.3653945394E-03
              5.8652041825E+00  1.8419926749E+00 -1.4356605672E-01
              6.1995483865E+00  1.2557365473E-01  2.1087723941E+00
              4.0490510281E+00  1.8571319427E+00  2.1491362300E+00
              4.0939408644E+00  2.9648791330E-01  3.9982358990E+00
              5.8544755377E+00  1.8501183045E+00  3.8733034384E+00
              6.1960442062E+00  1.0471956890E-01  6.1042743783E+00
              4.0573148591E+00  1.8452729593E+00  6.2004143851E+00
              4.0877661123E+00  4.2991459251E+00 -2.3977817588E-02
              5.8703388318E+00  5.8739631627E+00 -1.3498600152E-01
              6.1196189533E+00  4.3090939400E+00  2.0178709092E+00
              3.8455452866E+00  5.8716874921E+00  1.8715288407E+00
              4.1794470645E+00  4.1388747390E+00  4.0954549925E+00
              6.0638454150E+00  5.8836972440E+00  4.1824572822E+00
              6.2005418728E+00  4.1433376223E+00  6.1131941754E+00
              4.0499147553E+00  5.8647685244E+00  6.1650213573E+00
     xcart    1.5374626721E-01  5.3693015225E-01 -2.5978484373E-02
              3.4978891950E+00  3.4746890480E+00 -2.6163388307E-01
              4.1423466063E+00  2.1700605681E-01  3.9517466073E+00
              1.8577312147E-02  3.4942500427E+00  4.0973286069E+00
              1.3700993017E-01  5.2634625909E-01  7.5582639449E+00
              3.4713709145E+00  3.4404536608E+00  7.3323161339E+00
              4.1480099393E+00  2.1624140188E-01  1.1553809250E+01
              3.1341206387E-02  3.5099452894E+00  1.1674924569E+01
              1.3352919494E-01  8.1496519265E+00 -8.9396489041E-03
              3.4865540255E+00  1.1050565068E+01 -2.8022032834E-01
              4.1324563856E+00  7.7766182466E+00  3.9667112405E+00
              3.9890113317E-02  1.1121557894E+01  4.1108731348E+00
              1.0494012969E-01  8.1717662363E+00  7.5964666571E+00
              3.4370344833E+00  1.1059805148E+01  7.3524860738E+00
              4.1442534706E+00  7.7867450577E+00  1.1537926819E+01
              1.6465139699E-02  1.1124892992E+01  1.1711804612E+01
              7.7129023485E+00  5.1930409470E-01  1.7698030816E-02
              1.1083629624E+01  3.4808616963E+00 -2.7130052933E-01
              1.1715448604E+01  2.3729981708E-01  3.9850023036E+00
              7.6515975455E+00  3.5094707663E+00  4.0612788991E+00
              7.7364270422E+00  5.6028095815E-01  7.5555708678E+00
              1.1063355424E+01  3.4962169108E+00  7.3194827321E+00
              1.1708826663E+01  1.9789130608E-01  1.1535406821E+01
              7.6672139228E+00  3.4870605353E+00  1.1717085105E+01
              7.7247584517E+00  8.1242084083E+00 -4.5311508530E-02
              1.1093332705E+01  1.1100181698E+01 -2.5508657479E-01
              1.1564403866E+01  8.1430074320E+00  3.8132233920E+00
              7.2670274273E+00  1.1095881304E+01  3.5366769607E+00
              7.8980103430E+00  7.8213397593E+00  7.7392883297E+00
              1.1459007153E+01  1.1118576446E+01  7.9036988302E+00
              1.1717326022E+01  7.8297733866E+00  1.1552262795E+01
              7.6532297532E+00  1.1082806350E+01  1.1650201975E+01
      xred    1.0114886000E-02  3.5324352122E-02 -1.7091108140E-03
              2.3012428915E-01  2.2859796368E-01 -1.7212755465E-02
              2.7252280304E-01  1.4276714264E-02  2.5998332943E-01
              1.2221915886E-03  2.2988487123E-01  2.6956109256E-01
              9.0138111954E-03  3.4628043361E-02  4.9725420690E-01
              2.2837966543E-01  2.2634563558E-01  4.8238921933E-01
              2.7289539074E-01  1.4226408019E-02  7.6011902963E-01
              2.0619214728E-03  2.3091745325E-01  7.6808714267E-01
              8.7848154567E-03  5.3616131095E-01 -5.8813479632E-04
              2.2937855431E-01  7.2701085973E-01 -1.8435547917E-02
              2.7187213063E-01  5.1161962148E-01  2.6096784477E-01
              2.6243495603E-03  7.3168144041E-01  2.7045217992E-01
              6.9039559006E-03  5.3761619975E-01  4.9976754323E-01
              2.2612068969E-01  7.2761875971E-01  4.8371618906E-01
              2.7264825465E-01  5.1228585906E-01  7.5907413280E-01
              1.0832328749E-03  7.3190085476E-01  7.7051346132E-01
              5.0742778609E-01  3.4164743072E-02  1.1643441326E-03
              7.2918615950E-01  2.2900405897E-01 -1.7848719035E-02
              7.7075319766E-01  1.5611830071E-02  2.6217120418E-01
              5.0339457536E-01  2.3088623462E-01  2.6718940126E-01
              5.0897546330E-01  3.6860589352E-02  4.9707703078E-01
              7.2785233052E-01  2.3001427045E-01  4.8154491658E-01
              7.7031754364E-01  1.3019164874E-02  7.5890834351E-01
              5.0442196861E-01  2.2941187733E-01  7.7086086216E-01
              5.0820779287E-01  5.3448739528E-01 -2.9810202980E-03
              7.2982452009E-01  7.3027511173E-01 -1.6782011499E-02
              7.6081604380E-01  5.3572417316E-01  2.5086996000E-01
              4.7809390969E-01  7.2999219106E-01  2.3267611583E-01
              5.1960594362E-01  5.1456182627E-01  5.0916370590E-01
              7.5388204953E-01  7.3148529250E-01  5.1998018620E-01
              7.7087671195E-01  5.1511667017E-01  7.6001728915E-01
              5.0350195745E-01  7.2913199670E-01  7.6646065625E-01
    zatnum    13.000

================================================================================

- Total cpu        time (s,m,h):        148.6        2.48      0.041
- Total wall clock time (s,m,h):        464.6        7.74      0.129

 For major independent code sections, cpu and wall times (sec),
 as well as % of the total time and number of calls 

- routine                 cpu     %       wall     %      number of calls 
-                                                          (-1=no count)
- fourwf(pot)           29.545  19.9     33.567   7.2          42462
- nonlop(apply)         28.034  18.9     30.990   6.7          42462
- vtowfk(ssdiag)        27.894  18.8    283.669  61.1             -1
- getghc-other          15.399  10.4     17.201   3.7             -1
- projbd                14.542   9.8     15.418   3.3          66748
- nonlop(forces)         6.266   4.2      6.452   1.4           6784
- cgwf-O(npw)            4.975   3.3      5.648   1.2             -1
- fourwf(den)            2.865   1.9      3.516   0.8           7040
- ewald                  2.797   1.9      3.117   0.7             18
- forces                 2.590   1.7      2.894   0.6            106
- vtowfk(contrib)        2.311   1.6      4.831   1.0            106
- ewald2                 2.260   1.5      2.587   0.6             18
- nonlop(stress)         1.340   0.9      2.020   0.4           1152
- scfcv-scprqt           0.559   0.4      6.909   1.5            106
- xc:pot/=fourdp         0.380   0.3      0.390   0.1            124
- fourdp                 0.278   0.2      0.282   0.1            442
- vtorho(4)-mkrho        0.252   0.2      1.181   0.3            212
- pspini                 0.249   0.2      0.280   0.1              9
- mkrho/=                0.243   0.2      0.241   0.1            220
- status                 0.228   0.2     16.013   3.4           3092
- inwffil                0.227   0.2      0.390   0.1              9
- rwwf                   0.184   0.1      0.190   0.0             13
- vtorho-kpt loop        0.132   0.1      2.185   0.5            106
- vtorho  (1)            0.105   0.1      1.116   0.2            106
- vtowfk  (1)            0.064   0.0      1.218   0.3            106
- kpgsph                 0.000   0.0      0.000   0.0             10
- vtowfk3(contrib)       0.000   0.0      0.000   0.0             -1
- cgwf3-O(npw)           0.000   0.0      0.000   0.0             -1
- 21   others            0.000   0.0      0.000   0.0

- subtotal             143.721  96.7    442.305  95.2

 Partitioning of abinit 
- abinit               148.620 100.0    464.596 100.0              1
 
- abinit(1)              0.009   0.0      0.500   0.1              1
- abinit(2)              0.141   0.1      0.141   0.0              1
- abinit(3)              0.270   0.2      0.270   0.1              1
- abinit(4)              0.010   0.0      0.010   0.0              1
- abinit(5)              0.000   0.0      0.000   0.0              1
- driver-gstate        145.104  97.6    459.975  99.0              9
- abinit(6)              0.012   0.0      0.012   0.0              1

- subtotal             145.545  97.9    460.908  99.2

 Partitioning of gstate 
- driver-gstate        145.104  97.6    459.975  99.0              9
 
- gstate->kpgsph         0.262   0.2      2.540   0.5             18
- pspini                 0.249   0.2      0.280   0.1              9
- gstate  (2)            0.167   0.1      0.407   0.1              9
- test_ionmov          143.974  96.9    429.143  92.4              9
- gstate  (3)            0.426   0.3     26.788   5.8              9

- subtotal             145.077  97.6    459.158  98.8

 Partitioning of scfcv 
- scfcv                143.514  96.6    427.685  92.1             18
 
- scfcv   (1)            0.012   0.0      0.342   0.1             18
- setvtr/=mkcore         2.903   2.0      3.226   0.7             18
- setvtr:mkcore          0.257   0.2      0.262   0.1             36
- scfcv-read             0.021   0.0      0.276   0.1            106
- vtorho               132.621  89.2    407.507  87.7            106
- vresfo                 3.059   2.1      3.373   0.7            106
- scfcv-scprqt           0.559   0.4      6.909   1.5            106
- newvtr                 0.234   0.2      0.236   0.1             88
- scfcv   (6)            0.007   0.0      0.223   0.0             36
- stress                 3.784   2.5      4.828   1.0             18

- subtotal             143.455  96.5    427.182  91.9

 Partitioning of vresfo 
- vresfo                 3.059   2.1      3.373   0.7            106
 
- vresfo-Hxc,res         0.459   0.3      0.468   0.1            106
- vresfo-mkcore          0.003   0.0      0.003   0.0            106
- forces                 2.590   1.7      2.894   0.6            106

- subtotal               3.052   2.1      3.365   0.7

 Partitioning of vtorho 
- vtorho               132.621  89.2    407.507  87.7            106
 
- vtorho  (1)            0.105   0.1      1.116   0.2            106
- vtowfk               129.030  86.8    398.994  85.9            106
- vtorho-kpt loop        0.132   0.1      2.185   0.5            106
- vtorho  (4)            3.338   2.2      4.913   1.1            212

- subtotal             132.605  89.2    407.208  87.6

 Partitioning of vtowfk 
- vtowfk               129.030  86.8    398.994  85.9            106
 
- vtowfk  (1)            0.064   0.0      1.218   0.3            106
- cgwf                  92.494  62.2    102.824  22.1           9088
- vtowfk(ssdiag)        27.894  18.8    283.669  61.1             -1
- vtowfk(contrib)        2.311   1.6      4.831   1.0            106
- nonlop%vtowfk          6.266   4.2      6.452   1.4           6784

- subtotal             129.030  86.8    398.994  85.9

 Partitioning of cgwf 
- cgwf                  92.494  62.2    102.824  22.1           9088
 
- getghc%cgwf           72.978  49.1     81.758  17.6          42462
- cgwf-O(npw)            4.975   3.3      5.648   1.2             -1
- projbd%cgwf           14.542   9.8     15.418   3.3          66748

- subtotal              92.494  62.2    102.824  22.1

 Partitioning of getghc 
- getghc                72.978  49.1     81.758  17.6          42462
 
- fourwf%getghc         29.545  19.9     33.567   7.2          42462
- nonlop%getghc         28.034  18.9     30.990   6.7          42462
- getghc-other          15.399  10.4     17.201   3.7             -1

- subtotal              72.978  49.1     81.758  17.6

 Additional information 
- wrtout                 0.835   0.6      1.112   0.2          12971
- total timab            0.000   0.0      0.000   0.0         237475
- fourwf(total )        32.409  21.8     37.083   8.0          49502
- mklocl(2)              0.810   0.5      0.828   0.2            106
- status                 0.228   0.2     16.013   3.4           3092
- newocc                 0.234   0.2      0.238   0.1            110
- nonlop(stress)         1.340   0.9      2.020   0.4           1152
- nonlop(total )        35.640  24.0     39.462   8.5          50398


 Detailed analysis of some time consuming routines 
                          tcpu    ncalls  tcpu/ncalls    ndata tcpu/ncalls/ndata
                         (sec)                (msec)              (microsec)
- fourwf(pot)           29.545     42462       0.696     16000       0.043
- fourwf(den)            2.865      7040       0.407      8000       0.051
- fourdp                 0.278       442       0.629      8000       0.079
- nonlop(apply)         28.034     42462       0.660      7680       0.086
- nonlop(forces)         6.266      6784       0.924      7680       0.120
- nonlop(stress)         1.340      1152       1.163      7680       0.151
- projbd                14.542     66748       0.218     15360       0.014
- xc:pot/=fourdp         0.380       124       3.061      8000       0.383

================================================================================

 Calculation completed.
 Delivered  123 WARNINGs and   1 COMMENTs to log file.
+Overall time at end (sec) : cpu=        148.6  wall=        464.7
