
.Version 5.6.3  of ABINIT 
.(sequential version, prepared for a x86_64_linux_gcc4.3 computer) 

.Copyright (C) 1998-2008 ABINIT group . 
 ABINIT comes with ABSOLUTELY NO WARRANTY.
 It is free software, and you are welcome to redistribute it
 under certain conditions (GNU General Public License,
 see ~abinit/COPYING or http://www.gnu.org/copyleft/gpl.txt).

 ABINIT is a project of the Universite Catholique de Louvain,
 Corning Inc. and other collaborators, see ~abinit/doc/developers/contributors.txt .
 Please read ~abinit/doc/users/acknowledgments.html for suggested
 acknowledgments of the ABINIT effort.
 For more information, see http://www.abinit.org .

.Starting date : Thu  6 Nov 2008.
  
- input  file    -> /home/gonze/ABINIT/ABINITv5.6.3/test_gcc43/5.6.3-private/tests/tutorespfn/Input/trf1_3.in
- output file    -> trf1_3.out
- root for input  files -> trf1_1o
- root for output files -> trf1_3o


 Symmetries : space group F-4 3 m (#216); Bravais cF (face-center cubic)
================================================================================
 Values of the parameters that define the memory need of the present run (RF).
   intxc =         0    iscf =         5 xclevel =         1  lmnmax =         3
   lnmax =         3   mband =         4  mffmem =         1   mgfft =        12
P  mkmem =       128  mkqmem =       128  mk1mem =       128 mpssoang=         3
     mpw =        77  mqgrid =      3001   natom =         2    nfft =      1728
    nkpt =       128  nloalg =         4  nspden =         1 nspinor =         1
  nsppol =         1    nsym =        24  n1xccc =      2501  ntypat =         2
  occopt =         1
================================================================================
P This job should need less than                       3.521 Mbytes of memory.
  Rough estimation (10% accuracy) of disk space for files :
  WF disk file :      0.604 Mbytes ; DEN or POT disk file :      0.015 Mbytes.
================================================================================

 -outvars: echo values of preprocessed input variables --------
     acell    1.0610000000E+01  1.0610000000E+01  1.0610000000E+01 Bohr
       amu    2.69815390E+01  7.49215900E+01
    diemac    9.00000000E+00
      ecut    3.00000000E+00 Hartree
    irdwfk         1
      iscf         5
       kpt    0.00000000E+00  0.00000000E+00 -1.25000000E-01
              0.00000000E+00  0.00000000E+00 -3.75000000E-01
              0.00000000E+00  1.25000000E-01 -2.50000000E-01
              0.00000000E+00  2.50000000E-01 -1.25000000E-01
              1.25000000E-01  0.00000000E+00 -2.50000000E-01
              1.25000000E-01  1.25000000E-01 -1.25000000E-01
              2.50000000E-01  0.00000000E+00 -1.25000000E-01
              0.00000000E+00  1.25000000E-01  5.00000000E-01
              0.00000000E+00  2.50000000E-01 -3.75000000E-01
              0.00000000E+00  3.75000000E-01 -2.50000000E-01
              0.00000000E+00  5.00000000E-01 -1.25000000E-01
              1.25000000E-01  0.00000000E+00  5.00000000E-01
              1.25000000E-01  1.25000000E-01 -3.75000000E-01
              1.25000000E-01  2.50000000E-01 -2.50000000E-01
              1.25000000E-01  3.75000000E-01 -1.25000000E-01
              2.50000000E-01  0.00000000E+00 -3.75000000E-01
              2.50000000E-01  1.25000000E-01 -2.50000000E-01
              2.50000000E-01  2.50000000E-01 -1.25000000E-01
              3.75000000E-01  0.00000000E+00 -2.50000000E-01
              3.75000000E-01  1.25000000E-01 -1.25000000E-01
              5.00000000E-01  0.00000000E+00 -1.25000000E-01
              0.00000000E+00  1.25000000E-01  2.50000000E-01
              0.00000000E+00  2.50000000E-01  3.75000000E-01
              0.00000000E+00  3.75000000E-01  5.00000000E-01
              0.00000000E+00  5.00000000E-01 -3.75000000E-01
              0.00000000E+00 -3.75000000E-01 -2.50000000E-01
              0.00000000E+00 -2.50000000E-01 -1.25000000E-01
              1.25000000E-01  0.00000000E+00  2.50000000E-01
              1.25000000E-01  1.25000000E-01  3.75000000E-01
              1.25000000E-01  2.50000000E-01  5.00000000E-01
              1.25000000E-01  3.75000000E-01 -3.75000000E-01
              1.25000000E-01  5.00000000E-01 -2.50000000E-01
              1.25000000E-01 -3.75000000E-01 -1.25000000E-01
              2.50000000E-01  0.00000000E+00  3.75000000E-01
              2.50000000E-01  1.25000000E-01  5.00000000E-01
              2.50000000E-01  2.50000000E-01 -3.75000000E-01
              2.50000000E-01  3.75000000E-01 -2.50000000E-01
              2.50000000E-01  5.00000000E-01 -1.25000000E-01
              3.75000000E-01  0.00000000E+00  5.00000000E-01
              3.75000000E-01  1.25000000E-01 -3.75000000E-01
              3.75000000E-01  2.50000000E-01 -2.50000000E-01
              3.75000000E-01  3.75000000E-01 -1.25000000E-01
              5.00000000E-01  0.00000000E+00 -3.75000000E-01
              5.00000000E-01  1.25000000E-01 -2.50000000E-01
              5.00000000E-01  2.50000000E-01 -1.25000000E-01
             -3.75000000E-01  0.00000000E+00 -2.50000000E-01
             -3.75000000E-01  1.25000000E-01 -1.25000000E-01
             -2.50000000E-01  0.00000000E+00 -1.25000000E-01
              0.00000000E+00  1.25000000E-01  0.00000000E+00
              1.25000000E-01  0.00000000E+00  0.00000000E+00
                       outvar1 : prtvol=0, do not print more k-points.
   kptrlen    4.24400000E+01
    kptopt         2
  kptrlatt   -4  4  4   4 -4  4   4  4 -4
P    mkmem       128
P   mkqmem       128
P   mk1mem       128
     natom         2
     nband         4
     ngfft        12      12      12
      nkpt       128
      nqpt         1
     nstep        15
      nsym        24
    ntypat         2
       occ    2.000000  2.000000  2.000000  2.000000
 optdriver         1
     rfdir         1       0       0
    rfphon         1
     rprim    0.0000000000E+00  5.0000000000E-01  5.0000000000E-01
              5.0000000000E-01  0.0000000000E+00  5.0000000000E-01
              5.0000000000E-01  5.0000000000E-01  0.0000000000E+00
    shiftk    5.00000000E-01  5.00000000E-01  5.00000000E-01
   spgroup       216
    symrel    1  0  0   0  1  0   0  0  1       0 -1  1   0 -1  0   1 -1  0
             -1  0  0  -1  0  1  -1  1  0       0  1 -1   1  0 -1   0  0 -1
             -1  0  0  -1  1  0  -1  0  1       0 -1  1   1 -1  0   0 -1  0
              1  0  0   0  0  1   0  1  0       0  1 -1   0  0 -1   1  0 -1
             -1  0  1  -1  1  0  -1  0  0       0 -1  0   1 -1  0   0 -1  1
              1  0 -1   0  0 -1   0  1 -1       0  1  0   0  0  1   1  0  0
              1  0 -1   0  1 -1   0  0 -1       0 -1  0   0 -1  1   1 -1  0
             -1  0  1  -1  0  0  -1  1  0       0  1  0   1  0  0   0  0  1
              0  0 -1   0  1 -1   1  0 -1       1 -1  0   0 -1  1   0 -1  0
              0  0  1   1  0  0   0  1  0      -1  1  0  -1  0  0  -1  0  1
              0  0  1   0  1  0   1  0  0       1 -1  0   0 -1  0   0 -1  1
              0  0 -1   1  0 -1   0  1 -1      -1  1  0  -1  0  1  -1  0  0
    tolvrs    1.00000000E-08
     typat    1  2
       wtk      0.00781    0.00781    0.00781    0.00781    0.00781    0.00781
                0.00781    0.00781    0.00781    0.00781    0.00781    0.00781
                0.00781    0.00781    0.00781    0.00781    0.00781    0.00781
                0.00781    0.00781    0.00781    0.00781    0.00781    0.00781
                0.00781    0.00781    0.00781    0.00781    0.00781    0.00781
                0.00781    0.00781    0.00781    0.00781    0.00781    0.00781
                0.00781    0.00781    0.00781    0.00781    0.00781    0.00781
                0.00781    0.00781    0.00781    0.00781    0.00781    0.00781
                0.00781    0.00781
                outvar1 : prtvol=0, do not print more k-points.
    xangst    0.0000000000E+00  0.0000000000E+00  0.0000000000E+00
              1.4036425458E+00  1.4036425458E+00  1.4036425458E+00
     xcart    0.0000000000E+00  0.0000000000E+00  0.0000000000E+00
              2.6525000000E+00  2.6525000000E+00  2.6525000000E+00
      xred    0.0000000000E+00  0.0000000000E+00  0.0000000000E+00
              2.5000000000E-01  2.5000000000E-01  2.5000000000E-01
     znucl     13.00000   33.00000

================================================================================

 chkinp: Checking input parameters for consistency.

================================================================================
== DATASET  1 ==================================================================

 Real(R)+Recip(G) space primitive vectors, cartesian coordinates (Bohr,Bohr^-1):
 R(1)=  0.0000000  5.3050000  5.3050000  G(1)= -0.0942507  0.0942507  0.0942507
 R(2)=  5.3050000  0.0000000  5.3050000  G(2)=  0.0942507 -0.0942507  0.0942507
 R(3)=  5.3050000  5.3050000  0.0000000  G(3)=  0.0942507  0.0942507 -0.0942507
 Unit cell volume ucvol=  2.9859750E+02 bohr^3
 Angles (23,13,12)=  6.00000000E+01  6.00000000E+01  6.00000000E+01 degrees
 setup1 : take into account q-point for computing boxcut.

 getcut: wavevector=  0.0000  0.0000  0.0000  ngfft=  12  12  12
         ecut(hartree)=      3.000   => boxcut(ratio)=   2.05142

--- Pseudopotential description ------------------------------------------------
- pspini: atom type   1  psp file is /home/gonze/ABINIT/ABINITv5.6.3/test_gcc43/5.6.3-private/tests/Psps_for_tests/13al.981214.fhi
- pspatm: opening atomic psp file    /home/gonze/ABINIT/ABINITv5.6.3/test_gcc43/5.6.3-private/tests/Psps_for_tests/13al.981214.fhi
 Aluminum, fhi98PP : Hamann-type, LDA CA PerdewWang, l=2 local
  13.00000   3.00000    981214                znucl, zion, pspdat
    6    7    2    2       493   0.00000      pspcod,pspxc,lmax,lloc,mmax,r2well
  No XC core correction.
  1.024700          amesh (Hamman grid)
 pspatm: epsatm=    1.36305739
         --- l  ekb(1:nproj) -->
             0    1.768744
             1    0.900554
 pspatm: atomic psp has been read  and splines computed

- pspini: atom type   2  psp file is /home/gonze/ABINIT/ABINITv5.6.3/test_gcc43/5.6.3-private/tests/Psps_for_tests/33as.pspnc
- pspatm: opening atomic psp file    /home/gonze/ABINIT/ABINITv5.6.3/test_gcc43/5.6.3-private/tests/Psps_for_tests/33as.pspnc
  Troullier-Martins psp for element  As        Thu Oct 27 17:37:14 EDT 1994
  33.00000   5.00000    940714                znucl, zion, pspdat
    1    1    1    1      2001   0.00000      pspcod,pspxc,lmax,lloc,mmax,r2well
    0   4.772  10.829    1   2.5306160        l,e99.0,e99.9,nproj,rcpsp
   0.00000000   0.00000000   0.00000000   0.00000000     rms, ekb1, ekb2, epsatm
    1   2.745   5.580    0   2.5306160        l,e99.0,e99.9,nproj,rcpsp
   0.00000000   0.00000000   0.00000000   0.00000000     rms, ekb1, ekb2, epsatm
    2.05731715564010    0.36322996461007    2.76014815959125   rchrg,fchrg,qchrg
 pspatm: epsatm=   27.20579911
         --- l  ekb(1:nproj) -->
             0    0.838751
 pspatm: atomic psp has been read  and splines computed

   2.28550852E+02                                ecore*ucvol(ha*bohr**3)
--------------------------------------------------------------------------------

-inwffil : will read wavefunctions from disk file trf1_1o_WFK
- newkpt: read input wf with ikpt,npw=   1      65, make ikpt,npw=   1      65
- newkpt: read input wf with ikpt,npw=   2      74, make ikpt,npw=   2      74
- newkpt: read input wf with ikpt,npw=   3      74, make ikpt,npw=   3      74
- newkpt: read input wf with ikpt,npw=   3      74, make ikpt,npw=   4      74
- newkpt: read input wf with ikpt,npw=   3      74, make ikpt,npw=   5      74
- newkpt: read input wf with ikpt,npw=   4      69, make ikpt,npw=   6      69
- newkpt: read input wf with ikpt,npw=   3      74, make ikpt,npw=   7      74
- newkpt: read input wf with ikpt,npw=   5      74, make ikpt,npw=   8      74
- newkpt: read input wf with ikpt,npw=   6      76, make ikpt,npw=   9      76
- newkpt: read input wf with ikpt,npw=   6      76, make ikpt,npw=  10      76
- newkpt: read input wf with ikpt,npw=   5      74, make ikpt,npw=  11      74
- newkpt: read input wf with ikpt,npw=   5      74, make ikpt,npw=  12      74
- newkpt: read input wf with ikpt,npw=   5      74, make ikpt,npw=  13      74
- newkpt: read input wf with ikpt,npw=   7      76, make ikpt,npw=  14      76
- newkpt: read input wf with ikpt,npw=   7      76, make ikpt,npw=  15      76
- newkpt: read input wf with ikpt,npw=   6      76, make ikpt,npw=  16      76
- newkpt: read input wf with ikpt,npw=   7      76, make ikpt,npw=  17      76
- newkpt: read input wf with ikpt,npw=   8      77, make ikpt,npw=  18      77
- newkpt: read input wf with ikpt,npw=   6      76, make ikpt,npw=  19      76
- newkpt: read input wf with ikpt,npw=   7      76, make ikpt,npw=  20      76
- newkpt: read input wf with ikpt,npw=   5      74, make ikpt,npw=  21      74
- newkpt: read input wf with ikpt,npw=   4      69, make ikpt,npw=  22      69
- newkpt: read input wf with ikpt,npw=   8      77, make ikpt,npw=  23      77
- newkpt: read input wf with ikpt,npw=   9      76, make ikpt,npw=  24      76
- newkpt: read input wf with ikpt,npw=   9      76, make ikpt,npw=  25      76
- newkpt: read input wf with ikpt,npw=   8      77, make ikpt,npw=  26      77
- newkpt: read input wf with ikpt,npw=   4      69, make ikpt,npw=  27      69
- newkpt: read input wf with ikpt,npw=   4      69, make ikpt,npw=  28      69
- newkpt: read input wf with ikpt,npw=   3      74, make ikpt,npw=  29      74
- newkpt: read input wf with ikpt,npw=   7      76, make ikpt,npw=  30      76
- newkpt: read input wf with ikpt,npw=  10      75, make ikpt,npw=  31      75
- newkpt: read input wf with ikpt,npw=  10      75, make ikpt,npw=  32      75
- newkpt: read input wf with ikpt,npw=   7      76, make ikpt,npw=  33      76
- newkpt: read input wf with ikpt,npw=   8      77, make ikpt,npw=  34      77
- newkpt: read input wf with ikpt,npw=   7      76, make ikpt,npw=  35      76
- newkpt: read input wf with ikpt,npw=   6      76, make ikpt,npw=  36      76
- newkpt: read input wf with ikpt,npw=  10      75, make ikpt,npw=  37      75
- newkpt: read input wf with ikpt,npw=  10      75, make ikpt,npw=  38      75
- newkpt: read input wf with ikpt,npw=   9      76, make ikpt,npw=  39      76
- newkpt: read input wf with ikpt,npw=  10      75, make ikpt,npw=  40      75
- newkpt: read input wf with ikpt,npw=  10      75, make ikpt,npw=  41      75
- newkpt: read input wf with ikpt,npw=   9      76, make ikpt,npw=  42      76
- newkpt: read input wf with ikpt,npw=   9      76, make ikpt,npw=  43      76
- newkpt: read input wf with ikpt,npw=  10      75, make ikpt,npw=  44      75
- newkpt: read input wf with ikpt,npw=  10      75, make ikpt,npw=  45      75
- newkpt: read input wf with ikpt,npw=   8      77, make ikpt,npw=  46      77
- newkpt: read input wf with ikpt,npw=   7      76, make ikpt,npw=  47      76
- newkpt: read input wf with ikpt,npw=   4      69, make ikpt,npw=  48      69
- newkpt: read input wf with ikpt,npw=   1      65, make ikpt,npw=  49      65
- newkpt: read input wf with ikpt,npw=   1      65, make ikpt,npw=  50      65
- newkpt : prtvol=0 or 1, do not print more k-points.


 ==>  initialize data related to q vector <==

 The list of irreducible perturbations for this q vector is:
    1)    idir= 1    ipert=   1

================================================================================

--------------------------------------------------------------------------------
 Perturbation wavevector (in red.coord.)   0.000000  0.000000  0.000000
 Perturbation : displacement of atom   1   along direction   1
 Found     2 symmetries that leave the perturbation invariant.
 symkpt : the number of k-points, thanks to the symmetries,
 is reduced to    72 .

--------------------------------------------------------------------------------

-inwffil : will read wavefunctions from disk file trf1_1o_WFK
- newkpt: read input wf with ikpt,npw=   1      65, make ikpt,npw=   1      65
- newkpt: read input wf with ikpt,npw=   2      74, make ikpt,npw=   2      74
- newkpt: read input wf with ikpt,npw=   3      74, make ikpt,npw=   3      74
- newkpt: read input wf with ikpt,npw=   3      74, make ikpt,npw=   4      74
- newkpt: read input wf with ikpt,npw=   4      69, make ikpt,npw=   5      69
- newkpt: read input wf with ikpt,npw=   3      74, make ikpt,npw=   6      74
- newkpt: read input wf with ikpt,npw=   5      74, make ikpt,npw=   7      74
- newkpt: read input wf with ikpt,npw=   6      76, make ikpt,npw=   8      76
- newkpt: read input wf with ikpt,npw=   5      74, make ikpt,npw=   9      74
- newkpt: read input wf with ikpt,npw=   5      74, make ikpt,npw=  10      74
- newkpt: read input wf with ikpt,npw=   7      76, make ikpt,npw=  11      76
- newkpt: read input wf with ikpt,npw=   7      76, make ikpt,npw=  12      76
- newkpt: read input wf with ikpt,npw=   6      76, make ikpt,npw=  13      76
- newkpt: read input wf with ikpt,npw=   7      76, make ikpt,npw=  14      76
- newkpt: read input wf with ikpt,npw=   8      77, make ikpt,npw=  15      77
- newkpt: read input wf with ikpt,npw=   6      76, make ikpt,npw=  16      76
- newkpt: read input wf with ikpt,npw=   7      76, make ikpt,npw=  17      76
- newkpt: read input wf with ikpt,npw=   5      74, make ikpt,npw=  18      74
- newkpt: read input wf with ikpt,npw=   4      69, make ikpt,npw=  19      69
- newkpt: read input wf with ikpt,npw=   8      77, make ikpt,npw=  20      77
- newkpt: read input wf with ikpt,npw=   9      76, make ikpt,npw=  21      76
- newkpt: read input wf with ikpt,npw=   4      69, make ikpt,npw=  22      69
- newkpt: read input wf with ikpt,npw=   3      74, make ikpt,npw=  23      74
- newkpt: read input wf with ikpt,npw=   7      76, make ikpt,npw=  24      76
- newkpt: read input wf with ikpt,npw=  10      75, make ikpt,npw=  25      75
- newkpt: read input wf with ikpt,npw=  10      75, make ikpt,npw=  26      75
- newkpt: read input wf with ikpt,npw=   7      76, make ikpt,npw=  27      76
- newkpt: read input wf with ikpt,npw=   8      77, make ikpt,npw=  28      77
- newkpt: read input wf with ikpt,npw=   7      76, make ikpt,npw=  29      76
- newkpt: read input wf with ikpt,npw=   6      76, make ikpt,npw=  30      76
- newkpt: read input wf with ikpt,npw=  10      75, make ikpt,npw=  31      75
- newkpt: read input wf with ikpt,npw=  10      75, make ikpt,npw=  32      75
- newkpt: read input wf with ikpt,npw=   9      76, make ikpt,npw=  33      76
- newkpt: read input wf with ikpt,npw=  10      75, make ikpt,npw=  34      75
- newkpt: read input wf with ikpt,npw=  10      75, make ikpt,npw=  35      75
- newkpt: read input wf with ikpt,npw=   9      76, make ikpt,npw=  36      76
- newkpt: read input wf with ikpt,npw=   9      76, make ikpt,npw=  37      76
- newkpt: read input wf with ikpt,npw=  10      75, make ikpt,npw=  38      75
- newkpt: read input wf with ikpt,npw=   8      77, make ikpt,npw=  39      77
- newkpt: read input wf with ikpt,npw=   4      69, make ikpt,npw=  40      69
- newkpt: read input wf with ikpt,npw=   1      65, make ikpt,npw=  41      65
- newkpt: read input wf with ikpt,npw=   1      65, make ikpt,npw=  42      65
- newkpt: read input wf with ikpt,npw=   4      69, make ikpt,npw=  43      69
- newkpt: read input wf with ikpt,npw=   8      77, make ikpt,npw=  44      77
- newkpt: read input wf with ikpt,npw=   9      76, make ikpt,npw=  45      76
- newkpt: read input wf with ikpt,npw=   9      76, make ikpt,npw=  46      76
- newkpt: read input wf with ikpt,npw=   8      77, make ikpt,npw=  47      77
- newkpt: read input wf with ikpt,npw=   4      69, make ikpt,npw=  48      69
- newkpt: read input wf with ikpt,npw=   4      69, make ikpt,npw=  49      69
- newkpt: read input wf with ikpt,npw=   3      74, make ikpt,npw=  50      74
- newkpt : prtvol=0 or 1, do not print more k-points.

--------------------------------------------------------------------------------

-inwffil : will read wavefunctions from disk file trf1_1o_WFK
- newkpt: read input wf with ikpt,npw=   1      65, make ikpt,npw=   1      65
- newkpt: read input wf with ikpt,npw=   2      74, make ikpt,npw=   2      74
- newkpt: read input wf with ikpt,npw=   3      74, make ikpt,npw=   3      74
- newkpt: read input wf with ikpt,npw=   3      74, make ikpt,npw=   4      74
- newkpt: read input wf with ikpt,npw=   4      69, make ikpt,npw=   5      69
- newkpt: read input wf with ikpt,npw=   3      74, make ikpt,npw=   6      74
- newkpt: read input wf with ikpt,npw=   5      74, make ikpt,npw=   7      74
- newkpt: read input wf with ikpt,npw=   6      76, make ikpt,npw=   8      76
- newkpt: read input wf with ikpt,npw=   5      74, make ikpt,npw=   9      74
- newkpt: read input wf with ikpt,npw=   5      74, make ikpt,npw=  10      74
- newkpt: read input wf with ikpt,npw=   7      76, make ikpt,npw=  11      76
- newkpt: read input wf with ikpt,npw=   7      76, make ikpt,npw=  12      76
- newkpt: read input wf with ikpt,npw=   6      76, make ikpt,npw=  13      76
- newkpt: read input wf with ikpt,npw=   7      76, make ikpt,npw=  14      76
- newkpt: read input wf with ikpt,npw=   8      77, make ikpt,npw=  15      77
- newkpt: read input wf with ikpt,npw=   6      76, make ikpt,npw=  16      76
- newkpt: read input wf with ikpt,npw=   7      76, make ikpt,npw=  17      76
- newkpt: read input wf with ikpt,npw=   5      74, make ikpt,npw=  18      74
- newkpt: read input wf with ikpt,npw=   4      69, make ikpt,npw=  19      69
- newkpt: read input wf with ikpt,npw=   8      77, make ikpt,npw=  20      77
- newkpt: read input wf with ikpt,npw=   9      76, make ikpt,npw=  21      76
- newkpt: read input wf with ikpt,npw=   4      69, make ikpt,npw=  22      69
- newkpt: read input wf with ikpt,npw=   3      74, make ikpt,npw=  23      74
- newkpt: read input wf with ikpt,npw=   7      76, make ikpt,npw=  24      76
- newkpt: read input wf with ikpt,npw=  10      75, make ikpt,npw=  25      75
- newkpt: read input wf with ikpt,npw=  10      75, make ikpt,npw=  26      75
- newkpt: read input wf with ikpt,npw=   7      76, make ikpt,npw=  27      76
- newkpt: read input wf with ikpt,npw=   8      77, make ikpt,npw=  28      77
- newkpt: read input wf with ikpt,npw=   7      76, make ikpt,npw=  29      76
- newkpt: read input wf with ikpt,npw=   6      76, make ikpt,npw=  30      76
- newkpt: read input wf with ikpt,npw=  10      75, make ikpt,npw=  31      75
- newkpt: read input wf with ikpt,npw=  10      75, make ikpt,npw=  32      75
- newkpt: read input wf with ikpt,npw=   9      76, make ikpt,npw=  33      76
- newkpt: read input wf with ikpt,npw=  10      75, make ikpt,npw=  34      75
- newkpt: read input wf with ikpt,npw=  10      75, make ikpt,npw=  35      75
- newkpt: read input wf with ikpt,npw=   9      76, make ikpt,npw=  36      76
- newkpt: read input wf with ikpt,npw=   9      76, make ikpt,npw=  37      76
- newkpt: read input wf with ikpt,npw=  10      75, make ikpt,npw=  38      75
- newkpt: read input wf with ikpt,npw=   8      77, make ikpt,npw=  39      77
- newkpt: read input wf with ikpt,npw=   4      69, make ikpt,npw=  40      69
- newkpt: read input wf with ikpt,npw=   1      65, make ikpt,npw=  41      65
- newkpt: read input wf with ikpt,npw=   1      65, make ikpt,npw=  42      65
- newkpt: read input wf with ikpt,npw=   4      69, make ikpt,npw=  43      69
- newkpt: read input wf with ikpt,npw=   8      77, make ikpt,npw=  44      77
- newkpt: read input wf with ikpt,npw=   9      76, make ikpt,npw=  45      76
- newkpt: read input wf with ikpt,npw=   9      76, make ikpt,npw=  46      76
- newkpt: read input wf with ikpt,npw=   8      77, make ikpt,npw=  47      77
- newkpt: read input wf with ikpt,npw=   4      69, make ikpt,npw=  48      69
- newkpt: read input wf with ikpt,npw=   4      69, make ikpt,npw=  49      69
- newkpt: read input wf with ikpt,npw=   3      74, make ikpt,npw=  50      74
- newkpt : prtvol=0 or 1, do not print more k-points.

 Initialisation of the first-order wave-functions :
  ireadwf=   0
P newkpt: treating      4 bands with npw=      65 for ikpt=   1
P newkpt: treating      4 bands with npw=      74 for ikpt=   2
P newkpt: treating      4 bands with npw=      74 for ikpt=   3
P newkpt: treating      4 bands with npw=      74 for ikpt=   4
P newkpt: treating      4 bands with npw=      69 for ikpt=   5
P newkpt: treating      4 bands with npw=      74 for ikpt=   6
P newkpt: treating      4 bands with npw=      74 for ikpt=   7
P newkpt: treating      4 bands with npw=      76 for ikpt=   8
P newkpt: treating      4 bands with npw=      74 for ikpt=   9
P newkpt: treating      4 bands with npw=      74 for ikpt=  10
P newkpt: treating      4 bands with npw=      76 for ikpt=  11
P newkpt: treating      4 bands with npw=      76 for ikpt=  12
P newkpt: treating      4 bands with npw=      76 for ikpt=  13
P newkpt: treating      4 bands with npw=      76 for ikpt=  14
P newkpt: treating      4 bands with npw=      77 for ikpt=  15
P newkpt: treating      4 bands with npw=      76 for ikpt=  16
P newkpt: treating      4 bands with npw=      76 for ikpt=  17
P newkpt: treating      4 bands with npw=      74 for ikpt=  18
P newkpt: treating      4 bands with npw=      69 for ikpt=  19
P newkpt: treating      4 bands with npw=      77 for ikpt=  20
P newkpt: treating      4 bands with npw=      76 for ikpt=  21
P newkpt: treating      4 bands with npw=      69 for ikpt=  22
P newkpt: treating      4 bands with npw=      74 for ikpt=  23
P newkpt: treating      4 bands with npw=      76 for ikpt=  24
P newkpt: treating      4 bands with npw=      75 for ikpt=  25
P newkpt: treating      4 bands with npw=      75 for ikpt=  26
P newkpt: treating      4 bands with npw=      76 for ikpt=  27
P newkpt: treating      4 bands with npw=      77 for ikpt=  28
P newkpt: treating      4 bands with npw=      76 for ikpt=  29
P newkpt: treating      4 bands with npw=      76 for ikpt=  30
P newkpt: treating      4 bands with npw=      75 for ikpt=  31
P newkpt: treating      4 bands with npw=      75 for ikpt=  32
P newkpt: treating      4 bands with npw=      76 for ikpt=  33
P newkpt: treating      4 bands with npw=      75 for ikpt=  34
P newkpt: treating      4 bands with npw=      75 for ikpt=  35
P newkpt: treating      4 bands with npw=      76 for ikpt=  36
P newkpt: treating      4 bands with npw=      76 for ikpt=  37
P newkpt: treating      4 bands with npw=      75 for ikpt=  38
P newkpt: treating      4 bands with npw=      77 for ikpt=  39
P newkpt: treating      4 bands with npw=      69 for ikpt=  40
P newkpt: treating      4 bands with npw=      65 for ikpt=  41
P newkpt: treating      4 bands with npw=      65 for ikpt=  42
P newkpt: treating      4 bands with npw=      69 for ikpt=  43
P newkpt: treating      4 bands with npw=      77 for ikpt=  44
P newkpt: treating      4 bands with npw=      76 for ikpt=  45
P newkpt: treating      4 bands with npw=      76 for ikpt=  46
P newkpt: treating      4 bands with npw=      77 for ikpt=  47
P newkpt: treating      4 bands with npw=      69 for ikpt=  48
P newkpt: treating      4 bands with npw=      69 for ikpt=  49
P newkpt: treating      4 bands with npw=      74 for ikpt=  50
  newkpt: prtvol=0 or 1, do not print more k-points.


     iter   2DEtotal(Ha)        deltaE(Ha) residm    vres2
-ETOT  1   6.5156050443706     -1.464E+01 1.146E-02 1.947E+02
 ETOT  2   5.0216332122743     -1.494E+00 9.267E-04 2.027E+00
 ETOT  3   5.0082678672384     -1.337E-02 4.772E-06 7.929E-02
 ETOT  4   5.0078677943465     -4.001E-04 1.980E-07 2.712E-03
 ETOT  5   5.0078558844284     -1.191E-05 6.103E-09 5.074E-05
 ETOT  6   5.0078557504167     -1.340E-07 1.258E-10 9.613E-06
 ETOT  7   5.0078557001070     -5.031E-08 2.768E-11 3.841E-07
 ETOT  8   5.0078556985168     -1.590E-09 2.983E-12 6.089E-09

 At SCF step    8       vres2   =  6.09E-09 < tolvrs=  1.00E-08 =>converged.
================================================================================

 ----iterations are completed or convergence reached----

 Mean square residual over all n,k,spin=   3.2409E-13; max=  2.9832E-12
   0.0000  0.0000 -0.1250    1  6.67643E-13 kpt; spin; max resid(k); each band:
 3.09E-13 6.68E-13 5.67E-14 3.26E-13
   0.0000  0.0000 -0.3750    1  3.42639E-13 kpt; spin; max resid(k); each band:
 1.87E-13 2.61E-13 9.54E-14 3.43E-13
   0.0000  0.1250 -0.2500    1  3.81990E-13 kpt; spin; max resid(k); each band:
 1.62E-13 3.82E-13 2.97E-13 2.64E-13
   0.1250  0.0000 -0.2500    1  5.45097E-13 kpt; spin; max resid(k); each band:
 3.83E-13 3.81E-13 5.45E-13 1.47E-13
   0.1250  0.1250 -0.1250    1  5.17343E-13 kpt; spin; max resid(k); each band:
 3.34E-13 5.17E-13 5.95E-14 6.37E-14
   0.2500  0.0000 -0.1250    1  5.50341E-13 kpt; spin; max resid(k); each band:
 5.50E-13 5.47E-13 7.18E-14 2.06E-13
   0.0000  0.1250  0.5000    1  5.03618E-13 kpt; spin; max resid(k); each band:
 1.57E-13 2.17E-13 1.49E-13 5.04E-13
   0.0000  0.2500 -0.3750    1  7.57501E-13 kpt; spin; max resid(k); each band:
 7.83E-14 3.05E-13 1.12E-13 7.58E-13
   0.1250  0.0000  0.5000    1  4.75908E-13 kpt; spin; max resid(k); each band:
 2.18E-13 4.76E-13 2.20E-13 2.08E-13
   0.1250  0.1250 -0.3750    1  4.76794E-13 kpt; spin; max resid(k); each band:
 2.05E-13 4.77E-13 2.10E-13 2.06E-13
   0.1250  0.2500 -0.2500    1  3.93829E-13 kpt; spin; max resid(k); each band:
 2.15E-13 3.94E-13 3.10E-13 1.70E-13
   0.1250  0.3750 -0.1250    1  3.91655E-13 kpt; spin; max resid(k); each band:
 2.20E-13 3.92E-13 3.24E-13 1.79E-13
   0.2500  0.0000 -0.3750    1  5.67961E-13 kpt; spin; max resid(k); each band:
 3.24E-14 5.68E-13 2.41E-13 2.91E-13
   0.2500  0.1250 -0.2500    1  4.66546E-13 kpt; spin; max resid(k); each band:
 3.74E-14 4.67E-13 2.47E-13 4.25E-13
   0.2500  0.2500 -0.1250    1  7.79998E-13 kpt; spin; max resid(k); each band:
 4.50E-14 4.84E-13 7.80E-13 8.79E-14
   0.3750  0.0000 -0.2500    1  6.12272E-13 kpt; spin; max resid(k); each band:
 4.47E-14 3.90E-13 6.12E-13 2.97E-13
   0.3750  0.1250 -0.1250    1  6.83866E-13 kpt; spin; max resid(k); each band:
 3.94E-14 3.63E-13 6.84E-13 3.45E-13
   0.5000  0.0000 -0.1250    1  4.33408E-13 kpt; spin; max resid(k); each band:
 4.97E-14 4.33E-13 9.49E-14 2.20E-13
   0.0000  0.1250  0.2500    1  3.16030E-13 kpt; spin; max resid(k); each band:
 9.94E-14 3.16E-13 1.43E-13 5.09E-14
   0.0000  0.2500  0.3750    1  1.98027E-13 kpt; spin; max resid(k); each band:
 1.38E-13 1.98E-13 1.07E-13 1.87E-13
   0.0000  0.3750  0.5000    1  1.92334E-13 kpt; spin; max resid(k); each band:
 1.12E-13 1.90E-13 1.10E-13 1.92E-13
   0.1250  0.0000  0.2500    1  5.16428E-13 kpt; spin; max resid(k); each band:
 3.51E-13 5.16E-13 5.96E-14 7.39E-14
   0.1250  0.1250  0.3750    1  5.71214E-13 kpt; spin; max resid(k); each band:
 3.81E-13 3.79E-13 5.71E-13 1.68E-13
   0.1250  0.2500  0.5000    1  5.75286E-13 kpt; spin; max resid(k); each band:
 4.35E-13 2.98E-13 4.84E-13 5.75E-13
   0.1250  0.3750 -0.3750    1  8.10529E-13 kpt; spin; max resid(k); each band:
 2.83E-13 2.93E-13 2.02E-13 8.11E-13
   0.1250  0.5000 -0.2500    1  8.15403E-13 kpt; spin; max resid(k); each band:
 2.83E-13 2.97E-13 1.96E-13 8.15E-13
   0.1250 -0.3750 -0.1250    1  5.94427E-13 kpt; spin; max resid(k); each band:
 4.39E-13 3.01E-13 4.67E-13 5.94E-13
   0.2500  0.0000  0.3750    1  8.14453E-13 kpt; spin; max resid(k); each band:
 4.39E-14 4.81E-13 8.14E-13 8.87E-14
   0.2500  0.1250  0.5000    1  4.66406E-13 kpt; spin; max resid(k); each band:
 3.58E-14 4.66E-13 2.77E-13 4.11E-13
   0.2500  0.2500 -0.3750    1  5.73773E-13 kpt; spin; max resid(k); each band:
 2.93E-14 5.74E-13 2.51E-13 2.87E-13
   0.2500  0.3750 -0.2500    1  4.21047E-13 kpt; spin; max resid(k); each band:
 2.00E-14 4.21E-13 3.54E-13 3.08E-13
   0.2500  0.5000 -0.1250    1  4.23750E-13 kpt; spin; max resid(k); each band:
 2.03E-14 4.24E-13 3.51E-13 3.19E-13
   0.3750  0.0000  0.5000    1  9.88373E-13 kpt; spin; max resid(k); each band:
 3.28E-14 5.09E-13 9.88E-13 1.12E-13
   0.3750  0.1250 -0.3750    1  4.58222E-13 kpt; spin; max resid(k); each band:
 2.46E-13 4.06E-13 2.45E-13 4.58E-13
   0.3750  0.2500 -0.2500    1  4.57029E-13 kpt; spin; max resid(k); each band:
 2.49E-13 4.08E-13 2.42E-13 4.57E-13
   0.3750  0.3750 -0.1250    1  9.80410E-13 kpt; spin; max resid(k); each band:
 3.22E-14 5.13E-13 9.80E-13 1.10E-13
   0.5000  0.0000 -0.3750    1  1.33714E-12 kpt; spin; max resid(k); each band:
 3.92E-14 3.95E-13 1.34E-12 1.12E-13
   0.5000  0.1250 -0.2500    1  5.49151E-13 kpt; spin; max resid(k); each band:
 2.25E-14 3.17E-13 5.49E-13 3.18E-13
  -0.3750  0.0000 -0.2500    1  2.89945E-13 kpt; spin; max resid(k); each band:
 4.90E-14 2.90E-13 1.27E-13 8.64E-14
  -0.2500  0.0000 -0.1250    1  6.69863E-13 kpt; spin; max resid(k); each band:
 4.53E-13 6.70E-13 5.44E-14 1.29E-13
   0.1250  0.0000  0.0000    1  2.65107E-13 kpt; spin; max resid(k); each band:
 2.65E-13 1.52E-13 1.48E-13 2.72E-14
   0.1250  0.1250  0.1250    1  1.94666E-13 kpt; spin; max resid(k); each band:
 1.95E-13 1.51E-13 1.48E-13 2.73E-14
   0.1250  0.2500  0.2500    1  6.74550E-13 kpt; spin; max resid(k); each band:
 2.43E-13 6.75E-13 1.20E-14 2.24E-13
   0.1250  0.3750  0.3750    1  4.52347E-13 kpt; spin; max resid(k); each band:
 4.52E-13 3.20E-13 1.62E-13 1.12E-14
   0.1250  0.5000  0.5000    1  2.98316E-12 kpt; spin; max resid(k); each band:
 3.40E-14 2.73E-13 2.98E-12 1.23E-14
   0.1250 -0.3750 -0.3750    1  2.96747E-12 kpt; spin; max resid(k); each band:
 3.50E-14 2.81E-13 2.97E-12 1.30E-14
   0.1250 -0.2500 -0.2500    1  4.82124E-13 kpt; spin; max resid(k); each band:
 4.82E-13 3.53E-13 1.57E-13 1.33E-14
   0.1250 -0.1250 -0.1250    1  7.40377E-13 kpt; spin; max resid(k); each band:
 2.47E-13 7.40E-13 1.14E-14 2.14E-13
   0.2500  0.1250  0.2500    1  6.19225E-13 kpt; spin; max resid(k); each band:
 4.38E-13 6.19E-13 5.40E-14 1.35E-13
   0.2500  0.2500  0.3750    1  5.29713E-13 kpt; spin; max resid(k); each band:
 5.30E-13 4.95E-13 7.49E-14 1.56E-13
 outwf : prtvol=0 or 1, do not print more k-points.


 Thirteen components of 2nd-order total energy (hartree) are
 1,2,3: 0th-order hamiltonian combined with 1st-order wavefunctions
     kin0=   1.89159513E+01 eigvalue=   6.44876654E-01  local=  -1.10545761E+01
 4,5,6: 1st-order hamiltonian combined with 1st and 0th-order wfs
 loc psp =  -1.49261240E+01  Hartree=   3.64458893E+00     xc=  -1.67029721E+00
 note that "loc psp" includes a xc core correction that could be resolved
 7,8,9: eventually, occupation + non-local contributions
    edocc=   0.00000000E+00     enl0=   5.66829629E+00   enl1=  -1.73715629E+01
 1-9 gives the relaxation energy (to be shifted if some occ is /=2.0)
   erelax=  -1.61488470E+01
 10,11,12 Non-relaxation  contributions : frozen-wavefunctions and Ewald
 fr.local=  -6.53124861E+00 fr.nonlo=   1.58440582E+01  Ewald=   1.18438931E+01
 13,14 Frozen wf xc core corrections (1) and (2)
 frxc 1  =   0.00000000E+00  frxc 2 =   0.00000000E+00
 Resulting in :
 2DEtotal=    0.5007855699E+01 Ha. Also 2DEtotal=    0.136270683728E+03 eV
    (2DErelax=   -1.6148847037E+01 Ha. 2DEnonrelax=    2.1156702735E+01 Ha)
    (  non-var. 2DEtotal :    5.0078592871E+00 Ha)

================================================================================

 ---- first-order wavefunction calculations are completed ----


 ==> Compute Derivative Database <==
  
  2nd-order matrix (non-cartesian coordinates, masses not included,
   asr not included )
     j1       j2             matrix element
  dir pert dir pert     real part     imaginary part
  
   1    1   1    1         5.0078592871         0.0000000000
   1    1   2    1         2.5039296622         0.0000000000
   1    1   3    1         2.5039296622         0.0000000000
   1    1   1    2        -5.0077770419        -0.0000000000
   1    1   2    2        -2.5038887777         0.0000000000
   1    1   3    2        -2.5038887777         0.0000000000
   1    1   2    4         0.0000000000         0.0000000000
   1    1   3    4         0.0000000000         0.0000000000
  
   2    1   1    1         2.5039296622         0.0000000000
   2    1   2    1         5.0078592871         0.0000000000
   2    1   3    1         2.5039296250         0.0000000000
   2    1   1    2        -2.5038885210         0.0000000000
   2    1   2    2        -5.0077770419        -0.0000000000
   2    1   3    2        -2.5038885210         0.0000000000
   2    1   1    4         0.0000000000         0.0000000000
   2    1   3    4         0.0000000000         0.0000000000
  
   3    1   1    1         2.5039296622         0.0000000000
   3    1   2    1         2.5039296250         0.0000000000
   3    1   3    1         5.0078592499         0.0000000000
   3    1   1    2        -2.5038885210         0.0000000000
   3    1   2    2        -2.5038882642         0.0000000000
   3    1   3    2        -5.0077767852         0.0000000000
   3    1   1    4         0.0000000000         0.0000000000
   3    1   2    4         0.0000000000         0.0000000000
  
   1    2   1    1        -5.0077770419         0.0000000000
   1    2   2    1        -2.5038885210        -0.0000000000
   1    2   3    1        -2.5038885210        -0.0000000000
   1    2   2    4         0.0000000000         0.0000000000
   1    2   3    4         0.0000000000         0.0000000000
  
   2    2   1    1        -2.5038887777        -0.0000000000
   2    2   2    1        -5.0077770419         0.0000000000
   2    2   3    1        -2.5038882642        -0.0000000000
   2    2   1    4         0.0000000000         0.0000000000
   2    2   3    4         0.0000000000         0.0000000000
  
   3    2   1    1        -2.5038887777        -0.0000000000
   3    2   2    1        -2.5038885210        -0.0000000000
   3    2   3    1        -5.0077767852        -0.0000000000
   3    2   1    4         0.0000000000         0.0000000000
   3    2   2    4         0.0000000000         0.0000000000
  
   1    4   2    1         0.0000000000         0.0000000000
   1    4   3    1         0.0000000000         0.0000000000
   1    4   2    2         0.0000000000         0.0000000000
   1    4   3    2         0.0000000000         0.0000000000
  
   2    4   1    1         0.0000000000         0.0000000000
   2    4   3    1         0.0000000000         0.0000000000
   2    4   1    2         0.0000000000         0.0000000000
   2    4   3    2         0.0000000000         0.0000000000
  
   3    4   1    1         0.0000000000         0.0000000000
   3    4   2    1         0.0000000000         0.0000000000
   3    4   1    2         0.0000000000         0.0000000000
   3    4   2    2         0.0000000000         0.0000000000
  
  
  Dynamical matrix, in cartesian coordinates,
   if specified in the inputs, asr has been imposed
     j1       j2             matrix element
  dir pert dir pert     real part    imaginary part
  
   1    1   1    1         0.0889715873         0.0000000000
   1    1   2    1         0.0000000000         0.0000000000
   1    1   3    1         0.0000000007         0.0000000000
   1    1   1    2        -0.0889701183        -0.0000000000
   1    1   2    2         0.0000000000         0.0000000000
   1    1   3    2         0.0000000000        -0.0000000000
  
   2    1   1    1         0.0000000000         0.0000000000
   2    1   2    1         0.0889715886         0.0000000000
   2    1   3    1        -0.0000000000         0.0000000000
   2    1   1    2         0.0000000000         0.0000000000
   2    1   2    2        -0.0889701274         0.0000000000
   2    1   3    2         0.0000000000        -0.0000000000
  
   3    1   1    1         0.0000000007         0.0000000000
   3    1   2    1        -0.0000000000         0.0000000000
   3    1   3    1         0.0889715886         0.0000000000
   3    1   1    2        -0.0000000091        -0.0000000000
   3    1   2    2         0.0000000000        -0.0000000000
   3    1   3    2        -0.0889701274        -0.0000000000
  
   1    2   1    1        -0.0889701183         0.0000000000
   1    2   2    1         0.0000000000        -0.0000000000
   1    2   3    1        -0.0000000091         0.0000000000
  
   2    2   1    1        -0.0000000000        -0.0000000000
   2    2   2    1        -0.0889701274        -0.0000000000
   2    2   3    1         0.0000000000         0.0000000000
  
   3    2   1    1         0.0000000000         0.0000000000
   3    2   2    1         0.0000000000         0.0000000000
   3    2   3    1        -0.0889701274         0.0000000000
 
  Phonon wavevector (reduced coordinates) :  0.00000  0.00000  0.00000
 Phonon energies in Hartree :
   0.000000E+00  0.000000E+00  0.000000E+00  1.344969E-03  1.344969E-03
   1.344969E-03
 Phonon frequencies in cm-1    :
-  0.000000E+00  0.000000E+00  0.000000E+00  2.951866E+02  2.951866E+02
-  2.951866E+02
 chkph3 : WARNING -
  The dynamical matrix was incomplete : phonon frequencies may be wrong ...

== END DATASET(S) ==============================================================
================================================================================
  
 -outvars: echo values of variables after computation  --------
     acell    1.0610000000E+01  1.0610000000E+01  1.0610000000E+01 Bohr
       amu    2.69815390E+01  7.49215900E+01
    diemac    9.00000000E+00
      ecut    3.00000000E+00 Hartree
    etotal    5.0078556985E+00
     fcart    0.0000000000E+00  0.0000000000E+00  0.0000000000E+00
              0.0000000000E+00  0.0000000000E+00  0.0000000000E+00
    irdwfk         1
      iscf         5
       kpt    0.00000000E+00  0.00000000E+00 -1.25000000E-01
              0.00000000E+00  0.00000000E+00 -3.75000000E-01
              0.00000000E+00  1.25000000E-01 -2.50000000E-01
              0.00000000E+00  2.50000000E-01 -1.25000000E-01
              1.25000000E-01  0.00000000E+00 -2.50000000E-01
              1.25000000E-01  1.25000000E-01 -1.25000000E-01
              2.50000000E-01  0.00000000E+00 -1.25000000E-01
              0.00000000E+00  1.25000000E-01  5.00000000E-01
              0.00000000E+00  2.50000000E-01 -3.75000000E-01
              0.00000000E+00  3.75000000E-01 -2.50000000E-01
              0.00000000E+00  5.00000000E-01 -1.25000000E-01
              1.25000000E-01  0.00000000E+00  5.00000000E-01
              1.25000000E-01  1.25000000E-01 -3.75000000E-01
              1.25000000E-01  2.50000000E-01 -2.50000000E-01
              1.25000000E-01  3.75000000E-01 -1.25000000E-01
              2.50000000E-01  0.00000000E+00 -3.75000000E-01
              2.50000000E-01  1.25000000E-01 -2.50000000E-01
              2.50000000E-01  2.50000000E-01 -1.25000000E-01
              3.75000000E-01  0.00000000E+00 -2.50000000E-01
              3.75000000E-01  1.25000000E-01 -1.25000000E-01
              5.00000000E-01  0.00000000E+00 -1.25000000E-01
              0.00000000E+00  1.25000000E-01  2.50000000E-01
              0.00000000E+00  2.50000000E-01  3.75000000E-01
              0.00000000E+00  3.75000000E-01  5.00000000E-01
              0.00000000E+00  5.00000000E-01 -3.75000000E-01
              0.00000000E+00 -3.75000000E-01 -2.50000000E-01
              0.00000000E+00 -2.50000000E-01 -1.25000000E-01
              1.25000000E-01  0.00000000E+00  2.50000000E-01
              1.25000000E-01  1.25000000E-01  3.75000000E-01
              1.25000000E-01  2.50000000E-01  5.00000000E-01
              1.25000000E-01  3.75000000E-01 -3.75000000E-01
              1.25000000E-01  5.00000000E-01 -2.50000000E-01
              1.25000000E-01 -3.75000000E-01 -1.25000000E-01
              2.50000000E-01  0.00000000E+00  3.75000000E-01
              2.50000000E-01  1.25000000E-01  5.00000000E-01
              2.50000000E-01  2.50000000E-01 -3.75000000E-01
              2.50000000E-01  3.75000000E-01 -2.50000000E-01
              2.50000000E-01  5.00000000E-01 -1.25000000E-01
              3.75000000E-01  0.00000000E+00  5.00000000E-01
              3.75000000E-01  1.25000000E-01 -3.75000000E-01
              3.75000000E-01  2.50000000E-01 -2.50000000E-01
              3.75000000E-01  3.75000000E-01 -1.25000000E-01
              5.00000000E-01  0.00000000E+00 -3.75000000E-01
              5.00000000E-01  1.25000000E-01 -2.50000000E-01
              5.00000000E-01  2.50000000E-01 -1.25000000E-01
             -3.75000000E-01  0.00000000E+00 -2.50000000E-01
             -3.75000000E-01  1.25000000E-01 -1.25000000E-01
             -2.50000000E-01  0.00000000E+00 -1.25000000E-01
              0.00000000E+00  1.25000000E-01  0.00000000E+00
              1.25000000E-01  0.00000000E+00  0.00000000E+00
                       outvar1 : prtvol=0, do not print more k-points.
   kptrlen    4.24400000E+01
    kptopt         2
  kptrlatt   -4  4  4   4 -4  4   4  4 -4
P    mkmem       128
P   mkqmem       128
P   mk1mem       128
     natom         2
     nband         4
     ngfft        12      12      12
      nkpt       128
      nqpt         1
     nstep        15
      nsym        24
    ntypat         2
       occ    2.000000  2.000000  2.000000  2.000000
 optdriver         1
     rfdir         1       0       0
    rfphon         1
     rprim    0.0000000000E+00  5.0000000000E-01  5.0000000000E-01
              5.0000000000E-01  0.0000000000E+00  5.0000000000E-01
              5.0000000000E-01  5.0000000000E-01  0.0000000000E+00
    shiftk    5.00000000E-01  5.00000000E-01  5.00000000E-01
   spgroup       216
    strten    0.0000000000E+00  0.0000000000E+00  0.0000000000E+00
              0.0000000000E+00  0.0000000000E+00  0.0000000000E+00
    symrel    1  0  0   0  1  0   0  0  1       0 -1  1   0 -1  0   1 -1  0
             -1  0  0  -1  0  1  -1  1  0       0  1 -1   1  0 -1   0  0 -1
             -1  0  0  -1  1  0  -1  0  1       0 -1  1   1 -1  0   0 -1  0
              1  0  0   0  0  1   0  1  0       0  1 -1   0  0 -1   1  0 -1
             -1  0  1  -1  1  0  -1  0  0       0 -1  0   1 -1  0   0 -1  1
              1  0 -1   0  0 -1   0  1 -1       0  1  0   0  0  1   1  0  0
              1  0 -1   0  1 -1   0  0 -1       0 -1  0   0 -1  1   1 -1  0
             -1  0  1  -1  0  0  -1  1  0       0  1  0   1  0  0   0  0  1
              0  0 -1   0  1 -1   1  0 -1       1 -1  0   0 -1  1   0 -1  0
              0  0  1   1  0  0   0  1  0      -1  1  0  -1  0  0  -1  0  1
              0  0  1   0  1  0   1  0  0       1 -1  0   0 -1  0   0 -1  1
              0  0 -1   1  0 -1   0  1 -1      -1  1  0  -1  0  1  -1  0  0
    tolvrs    1.00000000E-08
     typat    1  2
       wtk      0.00781    0.00781    0.00781    0.00781    0.00781    0.00781
                0.00781    0.00781    0.00781    0.00781    0.00781    0.00781
                0.00781    0.00781    0.00781    0.00781    0.00781    0.00781
                0.00781    0.00781    0.00781    0.00781    0.00781    0.00781
                0.00781    0.00781    0.00781    0.00781    0.00781    0.00781
                0.00781    0.00781    0.00781    0.00781    0.00781    0.00781
                0.00781    0.00781    0.00781    0.00781    0.00781    0.00781
                0.00781    0.00781    0.00781    0.00781    0.00781    0.00781
                0.00781    0.00781
                outvar1 : prtvol=0, do not print more k-points.
    xangst    0.0000000000E+00  0.0000000000E+00  0.0000000000E+00
              1.4036425458E+00  1.4036425458E+00  1.4036425458E+00
     xcart    0.0000000000E+00  0.0000000000E+00  0.0000000000E+00
              2.6525000000E+00  2.6525000000E+00  2.6525000000E+00
      xred    0.0000000000E+00  0.0000000000E+00  0.0000000000E+00
              2.5000000000E-01  2.5000000000E-01  2.5000000000E-01
     znucl     13.00000   33.00000

================================================================================

- Total cpu        time (s,m,h):          3.4        0.06      0.001
- Total wall clock time (s,m,h):          3.4        0.06      0.001

- For major independent code sections, cpu and wall times (sec),
- as well as % of the total time and number of calls 

- routine                 cpu     %       wall     %      number of calls 
-                                                          (-1=no count)
- fourwf(pot)            1.032  30.1      1.038  30.3          11985
- timing timab           0.503  14.7      0.503  14.7             12
- pspini                 0.385  11.2      0.385  11.2              1
- cgwf3-O(npw)           0.222   6.5      0.218   6.4             -1
- fourwf(G->r)           0.219   6.4      0.230   6.7           4608
- nonlop(apply)          0.155   4.5      0.135   3.9           9681
- vtorho3-kpt loop       0.134   3.9      0.133   3.9              8
- getghc-other           0.112   3.3      0.111   3.2             -1
- projbd                 0.111   3.2      0.102   3.0          21666
- invars2                0.105   3.1      0.105   3.1              1
- vtowfk3(contrib)       0.077   2.2      0.088   2.6             -1
- nonlop(forces)         0.065   1.9      0.064   1.9           4032
- status                 0.059   1.7      0.055   1.6           7631
- inwffil                0.048   1.4      0.048   1.4              4
- abinit(2)              0.030   0.9      0.030   0.9              1
- mkrho/=                0.030   0.9      0.031   0.9              2
- fourwf(den)            0.027   0.8      0.031   0.9            512
- vtowfk3 (3)            0.026   0.8      0.029   0.8            576
- vtowfk3 (1)            0.026   0.8      0.025   0.7            576
- 51   others            0.029   0.8      0.037   1.1

- subtotal               3.395  99.0      3.398  99.1

================================================================================

 Calculation completed.
.Delivered    8 WARNINGs and   0 COMMENTs to log file.
+Overall time at end (sec) : cpu=          3.4  wall=          3.4
