
.Version 5.6.3  of ABINIT 
.(sequential version, prepared for a x86_64_linux_gcc4.3 computer) 

.Copyright (C) 1998-2008 ABINIT group . 
 ABINIT comes with ABSOLUTELY NO WARRANTY.
 It is free software, and you are welcome to redistribute it
 under certain conditions (GNU General Public License,
 see ~abinit/COPYING or http://www.gnu.org/copyleft/gpl.txt).

 ABINIT is a project of the Universite Catholique de Louvain,
 Corning Inc. and other collaborators, see ~abinit/doc/developers/contributors.txt .
 Please read ~abinit/doc/users/acknowledgments.html for suggested
 acknowledgments of the ABINIT effort.
 For more information, see http://www.abinit.org .

.Starting date : Thu  6 Nov 2008.
  
- input  file    -> /home/gonze/ABINIT/ABINITv5.6.3/test_gcc43/5.6.3-private/tests/tutorespfn/Input/trf1_2.in
- output file    -> trf1_2.out
- root for input  files -> trf1_1o
- root for output files -> trf1_2o


 Symmetries : the space group has not been recognized
================================================================================
 Values of the parameters that define the memory need of the present run
   intxc =         0  ionmov =         0    iscf =         5 xclevel =         1
  lmnmax =         3   lnmax =         3   mband =         4  mffmem =         1
P  mgfft =        12   mkmem =        72 mpssoang=         3     mpw =        77
  mqgrid =      3001   natom =         2    nfft =      1728    nkpt =        72
  nloalg =         4  nspden =         1 nspinor =         1  nsppol =         1
    nsym =         2  n1xccc =      2501  ntypat =         2  occopt =         1
================================================================================
P This job should need less than                       1.767 Mbytes of memory.
  Rough estimation (10% accuracy) of disk space for files :
  WF disk file :      0.340 Mbytes ; DEN or POT disk file :      0.015 Mbytes.
================================================================================

 -outvars: echo values of preprocessed input variables --------
     acell    1.0610000000E+01  1.0610000000E+01  1.0610000000E+01 Bohr
       amu    2.69815390E+01  7.49215900E+01
    diemac    9.00000000E+00
      ecut    3.00000000E+00 Hartree
    irdwfk         1
      iscf         5
       kpt    0.00000000E+00  0.00000000E+00 -1.25000000E-01
              0.00000000E+00  0.00000000E+00 -3.75000000E-01
              0.00000000E+00  1.25000000E-01 -2.50000000E-01
              1.25000000E-01  0.00000000E+00 -2.50000000E-01
              1.25000000E-01  1.25000000E-01 -1.25000000E-01
              2.50000000E-01  0.00000000E+00 -1.25000000E-01
              0.00000000E+00  1.25000000E-01  5.00000000E-01
              0.00000000E+00  2.50000000E-01 -3.75000000E-01
              1.25000000E-01  0.00000000E+00  5.00000000E-01
              1.25000000E-01  1.25000000E-01 -3.75000000E-01
              1.25000000E-01  2.50000000E-01 -2.50000000E-01
              1.25000000E-01  3.75000000E-01 -1.25000000E-01
              2.50000000E-01  0.00000000E+00 -3.75000000E-01
              2.50000000E-01  1.25000000E-01 -2.50000000E-01
              2.50000000E-01  2.50000000E-01 -1.25000000E-01
              3.75000000E-01  0.00000000E+00 -2.50000000E-01
              3.75000000E-01  1.25000000E-01 -1.25000000E-01
              5.00000000E-01  0.00000000E+00 -1.25000000E-01
              0.00000000E+00  1.25000000E-01  2.50000000E-01
              0.00000000E+00  2.50000000E-01  3.75000000E-01
              0.00000000E+00  3.75000000E-01  5.00000000E-01
              1.25000000E-01  0.00000000E+00  2.50000000E-01
              1.25000000E-01  1.25000000E-01  3.75000000E-01
              1.25000000E-01  2.50000000E-01  5.00000000E-01
              1.25000000E-01  3.75000000E-01 -3.75000000E-01
              1.25000000E-01  5.00000000E-01 -2.50000000E-01
              1.25000000E-01 -3.75000000E-01 -1.25000000E-01
              2.50000000E-01  0.00000000E+00  3.75000000E-01
              2.50000000E-01  1.25000000E-01  5.00000000E-01
              2.50000000E-01  2.50000000E-01 -3.75000000E-01
              2.50000000E-01  3.75000000E-01 -2.50000000E-01
              2.50000000E-01  5.00000000E-01 -1.25000000E-01
              3.75000000E-01  0.00000000E+00  5.00000000E-01
              3.75000000E-01  1.25000000E-01 -3.75000000E-01
              3.75000000E-01  2.50000000E-01 -2.50000000E-01
              3.75000000E-01  3.75000000E-01 -1.25000000E-01
              5.00000000E-01  0.00000000E+00 -3.75000000E-01
              5.00000000E-01  1.25000000E-01 -2.50000000E-01
             -3.75000000E-01  0.00000000E+00 -2.50000000E-01
             -2.50000000E-01  0.00000000E+00 -1.25000000E-01
              1.25000000E-01  0.00000000E+00  0.00000000E+00
              1.25000000E-01  1.25000000E-01  1.25000000E-01
              1.25000000E-01  2.50000000E-01  2.50000000E-01
              1.25000000E-01  3.75000000E-01  3.75000000E-01
              1.25000000E-01  5.00000000E-01  5.00000000E-01
              1.25000000E-01 -3.75000000E-01 -3.75000000E-01
              1.25000000E-01 -2.50000000E-01 -2.50000000E-01
              1.25000000E-01 -1.25000000E-01 -1.25000000E-01
              2.50000000E-01  1.25000000E-01  2.50000000E-01
              2.50000000E-01  2.50000000E-01  3.75000000E-01
                       outvar1 : prtvol=0, do not print more k-points.
   kptrlen    4.24400000E+01
    kptopt         1
  kptrlatt   -4  4  4   4 -4  4   4  4 -4
P    mkmem        72
     natom         2
     nband         4
     ngfft        12      12      12
      nkpt        72
     nstep        15
      nsym         2
    ntypat         2
       occ    2.000000  2.000000  2.000000  2.000000
     rprim    0.0000000000E+00  5.0000000000E-01  5.0000000000E-01
              5.0000000000E-01  0.0000000000E+00  5.0000000000E-01
              5.0000000000E-01  5.0000000000E-01  0.0000000000E+00
    shiftk    5.00000000E-01  5.00000000E-01  5.00000000E-01
    symrel    1  0  0   0  1  0   0  0  1       1  0  0   0  0  1   0  1  0
    tolvrs    1.00000000E-12
     typat    1  2
       wtk      0.01563    0.01563    0.01563    0.01563    0.01563    0.01563
                0.01563    0.01563    0.01563    0.01563    0.01563    0.01563
                0.01563    0.01563    0.01563    0.01563    0.01563    0.01563
                0.01563    0.01563    0.01563    0.01563    0.01563    0.01563
                0.01563    0.01563    0.01563    0.01563    0.01563    0.01563
                0.01563    0.01563    0.01563    0.01563    0.01563    0.01563
                0.01563    0.01563    0.01563    0.01563    0.00781    0.00781
                0.00781    0.00781    0.00781    0.00781    0.00781    0.00781
                0.01563    0.01563
                outvar1 : prtvol=0, do not print more k-points.
    xangst    0.0000000000E+00  2.8072850916E-03  2.8072850916E-03
              1.4036425458E+00  1.4036425458E+00  1.4036425458E+00
     xcart    0.0000000000E+00  5.3050000000E-03  5.3050000000E-03
              2.6525000000E+00  2.6525000000E+00  2.6525000000E+00
      xred    1.0000000000E-03  0.0000000000E+00  0.0000000000E+00
              2.5000000000E-01  2.5000000000E-01  2.5000000000E-01
     znucl     13.00000   33.00000

================================================================================

 chkinp: Checking input parameters for consistency.

================================================================================
== DATASET  1 ==================================================================

 Real(R)+Recip(G) space primitive vectors, cartesian coordinates (Bohr,Bohr^-1):
 R(1)=  0.0000000  5.3050000  5.3050000  G(1)= -0.0942507  0.0942507  0.0942507
 R(2)=  5.3050000  0.0000000  5.3050000  G(2)=  0.0942507 -0.0942507  0.0942507
 R(3)=  5.3050000  5.3050000  0.0000000  G(3)=  0.0942507  0.0942507 -0.0942507
 Unit cell volume ucvol=  2.9859750E+02 bohr^3
 Angles (23,13,12)=  6.00000000E+01  6.00000000E+01  6.00000000E+01 degrees

 getcut: wavevector=  0.0000  0.0000  0.0000  ngfft=  12  12  12
         ecut(hartree)=      3.000   => boxcut(ratio)=   2.05142

--- Pseudopotential description ------------------------------------------------
- pspini: atom type   1  psp file is /home/gonze/ABINIT/ABINITv5.6.3/test_gcc43/5.6.3-private/tests/Psps_for_tests/13al.981214.fhi
- pspatm: opening atomic psp file    /home/gonze/ABINIT/ABINITv5.6.3/test_gcc43/5.6.3-private/tests/Psps_for_tests/13al.981214.fhi
 Aluminum, fhi98PP : Hamann-type, LDA CA PerdewWang, l=2 local
  13.00000   3.00000    981214                znucl, zion, pspdat
    6    7    2    2       493   0.00000      pspcod,pspxc,lmax,lloc,mmax,r2well
  No XC core correction.
  1.024700          amesh (Hamman grid)
 pspatm: epsatm=    1.36305739
         --- l  ekb(1:nproj) -->
             0    1.768744
             1    0.900554
 pspatm: atomic psp has been read  and splines computed

- pspini: atom type   2  psp file is /home/gonze/ABINIT/ABINITv5.6.3/test_gcc43/5.6.3-private/tests/Psps_for_tests/33as.pspnc
- pspatm: opening atomic psp file    /home/gonze/ABINIT/ABINITv5.6.3/test_gcc43/5.6.3-private/tests/Psps_for_tests/33as.pspnc
  Troullier-Martins psp for element  As        Thu Oct 27 17:37:14 EDT 1994
  33.00000   5.00000    940714                znucl, zion, pspdat
    1    1    1    1      2001   0.00000      pspcod,pspxc,lmax,lloc,mmax,r2well
    0   4.772  10.829    1   2.5306160        l,e99.0,e99.9,nproj,rcpsp
   0.00000000   0.00000000   0.00000000   0.00000000     rms, ekb1, ekb2, epsatm
    1   2.745   5.580    0   2.5306160        l,e99.0,e99.9,nproj,rcpsp
   0.00000000   0.00000000   0.00000000   0.00000000     rms, ekb1, ekb2, epsatm
    2.05731715564010    0.36322996461007    2.76014815959125   rchrg,fchrg,qchrg
 pspatm: epsatm=   27.20579911
         --- l  ekb(1:nproj) -->
             0    0.838751
 pspatm: atomic psp has been read  and splines computed

   2.28550852E+02                                ecore*ucvol(ha*bohr**3)
--------------------------------------------------------------------------------

-inwffil : will read wavefunctions from disk file trf1_1o_WFK
- newkpt: read input wf with ikpt,npw=   1      65, make ikpt,npw=   1      65
- newkpt: read input wf with ikpt,npw=   2      74, make ikpt,npw=   2      74
- newkpt: read input wf with ikpt,npw=   3      74, make ikpt,npw=   3      74
- newkpt: read input wf with ikpt,npw=   4      74, make ikpt,npw=   4      74
- newkpt: read input wf with ikpt,npw=   5      69, make ikpt,npw=   5      69
- newkpt: read input wf with ikpt,npw=   6      74, make ikpt,npw=   6      74
- newkpt: read input wf with ikpt,npw=   7      74, make ikpt,npw=   7      74
- newkpt: read input wf with ikpt,npw=   8      76, make ikpt,npw=   8      76
- newkpt: read input wf with ikpt,npw=   9      74, make ikpt,npw=   9      74
- newkpt: read input wf with ikpt,npw=  10      74, make ikpt,npw=  10      74
- newkpt: read input wf with ikpt,npw=  11      76, make ikpt,npw=  11      76
- newkpt: read input wf with ikpt,npw=  12      76, make ikpt,npw=  12      76
- newkpt: read input wf with ikpt,npw=  13      76, make ikpt,npw=  13      76
- newkpt: read input wf with ikpt,npw=  14      76, make ikpt,npw=  14      76
- newkpt: read input wf with ikpt,npw=  15      77, make ikpt,npw=  15      77
- newkpt: read input wf with ikpt,npw=  16      76, make ikpt,npw=  16      76
- newkpt: read input wf with ikpt,npw=  17      76, make ikpt,npw=  17      76
- newkpt: read input wf with ikpt,npw=  18      74, make ikpt,npw=  18      74
- newkpt: read input wf with ikpt,npw=  19      69, make ikpt,npw=  19      69
- newkpt: read input wf with ikpt,npw=  20      77, make ikpt,npw=  20      77
- newkpt: read input wf with ikpt,npw=  21      76, make ikpt,npw=  21      76
- newkpt: read input wf with ikpt,npw=  22      69, make ikpt,npw=  22      69
- newkpt: read input wf with ikpt,npw=  23      74, make ikpt,npw=  23      74
- newkpt: read input wf with ikpt,npw=  24      76, make ikpt,npw=  24      76
- newkpt: read input wf with ikpt,npw=  25      75, make ikpt,npw=  25      75
- newkpt: read input wf with ikpt,npw=  26      75, make ikpt,npw=  26      75
- newkpt: read input wf with ikpt,npw=  27      76, make ikpt,npw=  27      76
- newkpt: read input wf with ikpt,npw=  28      77, make ikpt,npw=  28      77
- newkpt: read input wf with ikpt,npw=  29      76, make ikpt,npw=  29      76
- newkpt: read input wf with ikpt,npw=  30      76, make ikpt,npw=  30      76
- newkpt: read input wf with ikpt,npw=  31      75, make ikpt,npw=  31      75
- newkpt: read input wf with ikpt,npw=  32      75, make ikpt,npw=  32      75
- newkpt: read input wf with ikpt,npw=  33      76, make ikpt,npw=  33      76
- newkpt: read input wf with ikpt,npw=  34      75, make ikpt,npw=  34      75
- newkpt: read input wf with ikpt,npw=  35      75, make ikpt,npw=  35      75
- newkpt: read input wf with ikpt,npw=  36      76, make ikpt,npw=  36      76
- newkpt: read input wf with ikpt,npw=  37      76, make ikpt,npw=  37      76
- newkpt: read input wf with ikpt,npw=  38      75, make ikpt,npw=  38      75
- newkpt: read input wf with ikpt,npw=  39      77, make ikpt,npw=  39      77
- newkpt: read input wf with ikpt,npw=  40      69, make ikpt,npw=  40      69
- newkpt: read input wf with ikpt,npw=  41      65, make ikpt,npw=  41      65
- newkpt: read input wf with ikpt,npw=  42      65, make ikpt,npw=  42      65
- newkpt: read input wf with ikpt,npw=  43      69, make ikpt,npw=  43      69
- newkpt: read input wf with ikpt,npw=  44      77, make ikpt,npw=  44      77
- newkpt: read input wf with ikpt,npw=  45      76, make ikpt,npw=  45      76
- newkpt: read input wf with ikpt,npw=  46      76, make ikpt,npw=  46      76
- newkpt: read input wf with ikpt,npw=  47      77, make ikpt,npw=  47      77
- newkpt: read input wf with ikpt,npw=  48      69, make ikpt,npw=  48      69
- newkpt: read input wf with ikpt,npw=  49      69, make ikpt,npw=  49      69
- newkpt: read input wf with ikpt,npw=  50      74, make ikpt,npw=  50      74
- newkpt : prtvol=0 or 1, do not print more k-points.

 setup2: Arith. and geom. avg. npw (full set) are      74.469      74.418

================================================================================

     iter   Etot(hartree)      deltaE(h)  residm     vres2    diffor    maxfor
 ETOT  1  -9.7620078697859    -9.762E+00 4.676E-05 1.312E-01 1.213E-03 1.213E-03
 ETOT  2  -9.7626305991341    -6.227E-04 1.372E-10 9.370E-03 8.567E-04 4.208E-04
 ETOT  3  -9.7626758619811    -4.526E-05 5.215E-07 1.335E-03 1.779E-04 5.847E-04
 ETOT  4  -9.7626811102850    -5.248E-06 1.128E-07 4.501E-05 1.850E-04 4.680E-04
 ETOT  5  -9.7626812342904    -1.240E-07 1.299E-09 2.650E-06 4.503E-06 4.725E-04
 ETOT  6  -9.7626812402623    -5.972E-09 5.232E-11 3.465E-07 1.455E-06 4.717E-04
 ETOT  7  -9.7626812410004    -7.380E-10 7.266E-12 2.854E-08 2.292E-07 4.720E-04
 ETOT  8  -9.7626812410496    -4.925E-11 2.829E-13 4.099E-09 2.105E-08 4.720E-04
 ETOT  9  -9.7626812410570    -7.379E-12 5.154E-14 3.917E-10 1.157E-08 4.720E-04
 ETOT 10  -9.7626812410571    -1.066E-13 6.455E-16 2.679E-10 1.258E-09 4.720E-04
 ETOT 11  -9.7626812410576    -4.796E-13 5.022E-15 3.843E-11 1.380E-09 4.720E-04
 ETOT 12  -9.7626812410577    -1.119E-13 7.175E-16 6.325E-14 8.373E-10 4.720E-04

 At SCF step   12       vres2   =  6.33E-14 < tolvrs=  1.00E-12 =>converged.

 Cartesian components of stress tensor (hartree/bohr^3)
  sigma(1 1)=  2.88178822E-04  sigma(3 2)= -2.14277992E-08
  sigma(2 2)=  2.88190003E-04  sigma(3 1)= -2.62045072E-06
  sigma(3 3)=  2.88190003E-04  sigma(2 1)= -2.62045072E-06

================================================================================

 ----iterations are completed or convergence reached----

 Mean square residual over all n,k,spin=   2.0076E-16; max=  7.1751E-16
   0.0000  0.0000 -0.1250    1  5.23551E-16 kpt; spin; max resid(k); each band:
 5.15E-16 5.24E-16 7.85E-18 1.43E-17
   0.0000  0.0000 -0.3750    1  3.17366E-16 kpt; spin; max resid(k); each band:
 3.13E-16 3.17E-16 4.68E-18 1.33E-17
   0.0000  0.1250 -0.2500    1  5.45423E-16 kpt; spin; max resid(k); each band:
 5.45E-16 5.01E-16 5.91E-17 7.46E-18
   0.1250  0.0000 -0.2500    1  5.84224E-16 kpt; spin; max resid(k); each band:
 5.84E-16 5.11E-16 9.28E-17 2.82E-18
   0.1250  0.1250 -0.1250    1  6.82997E-16 kpt; spin; max resid(k); each band:
 6.83E-16 6.16E-16 1.63E-17 8.57E-17
   0.2500  0.0000 -0.1250    1  5.90735E-16 kpt; spin; max resid(k); each band:
 5.91E-16 5.58E-16 4.40E-17 2.75E-18
   0.0000  0.1250  0.5000    1  2.26033E-16 kpt; spin; max resid(k); each band:
 2.26E-16 1.43E-16 1.04E-16 9.81E-18
   0.0000  0.2500 -0.3750    1  1.73014E-16 kpt; spin; max resid(k); each band:
 1.73E-16 1.49E-16 6.87E-17 3.12E-17
   0.1250  0.0000  0.5000    1  2.32452E-16 kpt; spin; max resid(k); each band:
 2.32E-16 1.69E-16 1.26E-16 3.62E-18
   0.1250  0.1250 -0.3750    1  2.26181E-16 kpt; spin; max resid(k); each band:
 2.26E-16 1.48E-16 1.06E-16 1.76E-17
   0.1250  0.2500 -0.2500    1  3.69530E-16 kpt; spin; max resid(k); each band:
 3.70E-16 3.52E-16 8.60E-17 6.59E-17
   0.1250  0.3750 -0.1250    1  3.87776E-16 kpt; spin; max resid(k); each band:
 3.74E-16 3.88E-16 8.36E-17 9.40E-17
   0.2500  0.0000 -0.3750    1  1.71466E-16 kpt; spin; max resid(k); each band:
 1.71E-16 1.71E-16 1.12E-16 2.65E-17
   0.2500  0.1250 -0.2500    1  3.79836E-16 kpt; spin; max resid(k); each band:
 3.80E-16 3.77E-16 1.11E-16 1.07E-16
   0.2500  0.2500 -0.1250    1  5.05704E-16 kpt; spin; max resid(k); each band:
 4.88E-16 5.06E-16 4.12E-17 4.31E-17
   0.3750  0.0000 -0.2500    1  1.28383E-16 kpt; spin; max resid(k); each band:
 1.24E-16 1.28E-16 7.77E-17 2.61E-17
   0.3750  0.1250 -0.1250    1  3.72773E-16 kpt; spin; max resid(k); each band:
 3.55E-16 3.73E-16 8.83E-17 9.00E-17
   0.5000  0.0000 -0.1250    1  1.68139E-16 kpt; spin; max resid(k); each band:
 1.68E-16 1.16E-16 8.86E-17 3.75E-18
   0.0000  0.1250  0.2500    1  6.84764E-16 kpt; spin; max resid(k); each band:
 6.85E-16 6.16E-16 9.09E-18 8.95E-17
   0.0000  0.2500  0.3750    1  5.06872E-16 kpt; spin; max resid(k); each band:
 4.87E-16 5.07E-16 4.68E-17 3.34E-17
   0.0000  0.3750  0.5000    1  1.46520E-16 kpt; spin; max resid(k); each band:
 1.10E-16 1.47E-16 5.11E-17 2.69E-17
   0.1250  0.0000  0.2500    1  6.62694E-16 kpt; spin; max resid(k); each band:
 6.63E-16 6.01E-16 4.54E-18 8.67E-17
   0.1250  0.1250  0.3750    1  5.42565E-16 kpt; spin; max resid(k); each band:
 5.43E-16 4.97E-16 5.85E-17 1.27E-17
   0.1250  0.2500  0.5000    1  3.62659E-16 kpt; spin; max resid(k); each band:
 3.63E-16 3.41E-16 9.85E-17 7.60E-17
   0.1250  0.3750 -0.3750    1  2.34428E-16 kpt; spin; max resid(k); each band:
 8.87E-17 1.15E-16 2.34E-16 1.45E-16
   0.1250  0.5000 -0.2500    1  2.16221E-16 kpt; spin; max resid(k); each band:
 8.77E-17 1.41E-16 2.16E-16 1.96E-16
   0.1250 -0.3750 -0.1250    1  3.78984E-16 kpt; spin; max resid(k); each band:
 3.79E-16 3.70E-16 1.13E-16 1.01E-16
   0.2500  0.0000  0.3750    1  4.94702E-16 kpt; spin; max resid(k); each band:
 4.84E-16 4.95E-16 3.82E-17 2.91E-17
   0.2500  0.1250  0.5000    1  3.81631E-16 kpt; spin; max resid(k); each band:
 3.68E-16 3.82E-16 8.93E-17 1.10E-16
   0.2500  0.2500 -0.3750    1  1.66626E-16 kpt; spin; max resid(k); each band:
 1.67E-16 1.49E-16 7.72E-17 4.08E-17
   0.2500  0.3750 -0.2500    1  2.43461E-16 kpt; spin; max resid(k); each band:
 9.22E-17 1.17E-16 2.43E-16 1.58E-16
   0.2500  0.5000 -0.1250    1  2.58508E-16 kpt; spin; max resid(k); each band:
 9.22E-17 1.50E-16 2.59E-16 1.91E-16
   0.3750  0.0000  0.5000    1  1.42322E-16 kpt; spin; max resid(k); each band:
 1.21E-16 1.42E-16 5.00E-17 2.12E-17
   0.3750  0.1250 -0.3750    1  2.66524E-16 kpt; spin; max resid(k); each band:
 8.95E-17 1.45E-16 2.67E-16 2.06E-16
   0.3750  0.2500 -0.2500    1  2.34763E-16 kpt; spin; max resid(k); each band:
 8.83E-17 1.40E-16 2.35E-16 2.24E-16
   0.3750  0.3750 -0.1250    1  1.41285E-16 kpt; spin; max resid(k); each band:
 1.15E-16 1.41E-16 4.34E-17 3.87E-17
   0.5000  0.0000 -0.3750    1  1.41216E-16 kpt; spin; max resid(k); each band:
 1.14E-16 1.41E-16 8.68E-17 2.10E-17
   0.5000  0.1250 -0.2500    1  2.19877E-16 kpt; spin; max resid(k); each band:
 6.01E-17 1.23E-16 2.20E-16 1.83E-16
  -0.3750  0.0000 -0.2500    1  5.36534E-16 kpt; spin; max resid(k); each band:
 4.98E-16 5.37E-16 7.36E-17 2.87E-17
  -0.2500  0.0000 -0.1250    1  7.15704E-16 kpt; spin; max resid(k); each band:
 7.16E-16 6.79E-16 4.99E-18 6.81E-17
   0.1250  0.0000  0.0000    1  5.93651E-16 kpt; spin; max resid(k); each band:
 5.85E-16 5.94E-16 9.03E-18 6.48E-18
   0.1250  0.1250  0.1250    1  5.18903E-16 kpt; spin; max resid(k); each band:
 5.13E-16 5.19E-16 6.42E-18 1.61E-17
   0.1250  0.2500  0.2500    1  6.62953E-16 kpt; spin; max resid(k); each band:
 6.63E-16 5.99E-16 2.19E-18 8.85E-17
   0.1250  0.3750  0.3750    1  4.86171E-16 kpt; spin; max resid(k); each band:
 4.81E-16 4.86E-16 3.58E-17 2.52E-17
   0.1250  0.5000  0.5000    1  1.24452E-16 kpt; spin; max resid(k); each band:
 1.17E-16 1.24E-16 3.56E-17 1.64E-17
   0.1250 -0.3750 -0.3750    1  1.30699E-16 kpt; spin; max resid(k); each band:
 1.14E-16 1.31E-16 6.57E-17 1.61E-17
   0.1250 -0.2500 -0.2500    1  5.39948E-16 kpt; spin; max resid(k); each band:
 5.01E-16 5.40E-16 6.01E-17 2.45E-17
   0.1250 -0.1250 -0.1250    1  7.17513E-16 kpt; spin; max resid(k); each band:
 7.18E-16 6.85E-16 2.28E-18 6.44E-17
   0.2500  0.1250  0.2500    1  6.81898E-16 kpt; spin; max resid(k); each band:
 6.82E-16 6.08E-16 1.51E-17 9.41E-17
   0.2500  0.2500  0.3750    1  5.36350E-16 kpt; spin; max resid(k); each band:
 5.36E-16 4.89E-16 6.10E-17 1.18E-17
 outwf : prtvol=0 or 1, do not print more k-points.

 reduced coordinates (array xred) for    2 atoms
       0.001000000000      0.000000000000      0.000000000000
       0.250000000000      0.250000000000      0.250000000000
 rms dE/dt=  3.5517E-03; max dE/dt=  5.0079E-03; dE/dt below (all hartree)
    1       0.005007930232      0.002526304574      0.002526304574
    2      -0.005007868293     -0.002526274885     -0.002526274885

 cartesian coordinates (angstrom) at end:
    1      0.00000000000000     0.00280728509157     0.00280728509157
    2      1.40364254578497     1.40364254578497     1.40364254578497

 cartesian forces (hartree/bohr) at end:
    1     -0.00000421114011    -0.00047199804548    -0.00047199804548
    2      0.00000421114011     0.00047199804548     0.00047199804548
 frms,max,avg= 3.8539246E-04 4.7199805E-04   1.208E-10 -2.919E-09 -2.919E-09 h/b

 cartesian forces (eV/Angstrom) at end:
    1     -0.00021654551279    -0.02427111332128    -0.02427111332128
    2      0.00021654551279     0.02427111332128     0.02427111332128
 frms,max,avg= 1.9817675E-02 2.4271113E-02   6.212E-09 -1.501E-07 -1.501E-07 e/A
 length scales= 10.610000000000 10.610000000000 10.610000000000 bohr
              =  5.614570183140  5.614570183140  5.614570183140 angstroms
 prteigrs : about to open file trf1_2o_EIG
 Fermi (or HOMO) energy (hartree) =   0.07921   Average Vxc (hartree)=  -0.33469
 Eigenvalues (hartree) for nkpt=  72  k points:
 kpt#   1, nband=  4, wtk=  0.01563, kpt=  0.0000  0.0000 -0.1250 (reduced coord)
  -0.34831   0.03299   0.07850   0.07919
 kpt#   2, nband=  4, wtk=  0.01563, kpt=  0.0000  0.0000 -0.3750 (reduced coord)
  -0.31097  -0.10010   0.05530   0.05598
 kpt#   3, nband=  4, wtk=  0.01563, kpt=  0.0000  0.1250 -0.2500 (reduced coord)
  -0.32072  -0.06308   0.01994   0.06499
 kpt#   4, nband=  4, wtk=  0.01563, kpt=  0.1250  0.0000 -0.2500 (reduced coord)
  -0.32074  -0.06298   0.02007   0.06470
 kpt#   5, nband=  4, wtk=  0.01563, kpt=  0.1250  0.1250 -0.1250 (reduced coord)
  -0.33314  -0.02134   0.05037   0.05215
 kpt#   6, nband=  4, wtk=  0.01563, kpt=  0.2500  0.0000 -0.1250 (reduced coord)
  -0.32076  -0.06279   0.01988   0.06474
 kpt#   7, nband=  4, wtk=  0.01563, kpt=  0.0000  0.1250  0.5000 (reduced coord)
  -0.29748  -0.11672   0.01922   0.04186
 kpt#   8, nband=  4, wtk=  0.01563, kpt=  0.0000  0.2500 -0.3750 (reduced coord)
  -0.28878  -0.10539  -0.03600   0.03149
 kpt#   9, nband=  4, wtk=  0.01563, kpt=  0.1250  0.0000  0.5000 (reduced coord)
  -0.29747  -0.11674   0.01948   0.04161
 kpt#  10, nband=  4, wtk=  0.01563, kpt=  0.1250  0.1250 -0.3750 (reduced coord)
  -0.29748  -0.11670   0.01897   0.04211
 kpt#  11, nband=  4, wtk=  0.01563, kpt=  0.1250  0.2500 -0.2500 (reduced coord)
  -0.29952  -0.09294  -0.01315   0.03126
 kpt#  12, nband=  4, wtk=  0.01563, kpt=  0.1250  0.3750 -0.1250 (reduced coord)
  -0.29952  -0.09301  -0.01284   0.03100
 kpt#  13, nband=  4, wtk=  0.01563, kpt=  0.2500  0.0000 -0.3750 (reduced coord)
  -0.28880  -0.10534  -0.03584   0.03128
 kpt#  14, nband=  4, wtk=  0.01563, kpt=  0.2500  0.1250 -0.2500 (reduced coord)
  -0.29954  -0.09286  -0.01298   0.03098
 kpt#  15, nband=  4, wtk=  0.01563, kpt=  0.2500  0.2500 -0.1250 (reduced coord)
  -0.30792  -0.07146   0.00775   0.02161
 kpt#  16, nband=  4, wtk=  0.01563, kpt=  0.3750  0.0000 -0.2500 (reduced coord)
  -0.28883  -0.10512  -0.03604   0.03130
 kpt#  17, nband=  4, wtk=  0.01563, kpt=  0.3750  0.1250 -0.1250 (reduced coord)
  -0.29957  -0.09271  -0.01299   0.03087
 kpt#  18, nband=  4, wtk=  0.01563, kpt=  0.5000  0.0000 -0.1250 (reduced coord)
  -0.29754  -0.11644   0.01920   0.04168
 kpt#  19, nband=  4, wtk=  0.01563, kpt=  0.0000  0.1250  0.2500 (reduced coord)
  -0.33314  -0.02143   0.05013   0.05251
 kpt#  20, nband=  4, wtk=  0.01563, kpt=  0.0000  0.2500  0.3750 (reduced coord)
  -0.30791  -0.07156   0.00804   0.02144
 kpt#  21, nband=  4, wtk=  0.01563, kpt=  0.0000  0.3750  0.5000 (reduced coord)
  -0.28309  -0.10667  -0.01759   0.00608
 kpt#  22, nband=  4, wtk=  0.01563, kpt=  0.1250  0.0000  0.2500 (reduced coord)
  -0.33313  -0.02152   0.04991   0.05285
 kpt#  23, nband=  4, wtk=  0.01563, kpt=  0.1250  0.1250  0.3750 (reduced coord)
  -0.32071  -0.06317   0.01982   0.06528
 kpt#  24, nband=  4, wtk=  0.01563, kpt=  0.1250  0.2500  0.5000 (reduced coord)
  -0.29950  -0.09305  -0.01316   0.03140
 kpt#  25, nband=  4, wtk=  0.01563, kpt=  0.1250  0.3750 -0.3750 (reduced coord)
  -0.28169  -0.10286  -0.03917  -0.00151
 kpt#  26, nband=  4, wtk=  0.01563, kpt=  0.1250  0.5000 -0.2500 (reduced coord)
  -0.28171  -0.10278  -0.03899  -0.00176
 kpt#  27, nband=  4, wtk=  0.01563, kpt=  0.1250 -0.3750 -0.1250 (reduced coord)
  -0.29954  -0.09290  -0.01282   0.03085
 kpt#  28, nband=  4, wtk=  0.01563, kpt=  0.2500  0.0000  0.3750 (reduced coord)
  -0.30791  -0.07165   0.00834   0.02125
 kpt#  29, nband=  4, wtk=  0.01563, kpt=  0.2500  0.1250  0.5000 (reduced coord)
  -0.29950  -0.09309  -0.01301   0.03128
 kpt#  30, nband=  4, wtk=  0.01563, kpt=  0.2500  0.2500 -0.3750 (reduced coord)
  -0.28875  -0.10544  -0.03616   0.03169
 kpt#  31, nband=  4, wtk=  0.01563, kpt=  0.2500  0.3750 -0.2500 (reduced coord)
  -0.28170  -0.10281  -0.03930  -0.00143
 kpt#  32, nband=  4, wtk=  0.01563, kpt=  0.2500  0.5000 -0.1250 (reduced coord)
  -0.28171  -0.10283  -0.03886  -0.00184
 kpt#  33, nband=  4, wtk=  0.01563, kpt=  0.3750  0.0000  0.5000 (reduced coord)
  -0.28309  -0.10670  -0.01739   0.00592
 kpt#  34, nband=  4, wtk=  0.01563, kpt=  0.3750  0.1250 -0.3750 (reduced coord)
  -0.28170  -0.10286  -0.03895  -0.00172
 kpt#  35, nband=  4, wtk=  0.01563, kpt=  0.3750  0.2500 -0.2500 (reduced coord)
  -0.28171  -0.10278  -0.03921  -0.00155
 kpt#  36, nband=  4, wtk=  0.01563, kpt=  0.3750  0.3750 -0.1250 (reduced coord)
  -0.28309  -0.10664  -0.01779   0.00624
 kpt#  37, nband=  4, wtk=  0.01563, kpt=  0.5000  0.0000 -0.3750 (reduced coord)
  -0.28311  -0.10661  -0.01749   0.00593
 kpt#  38, nband=  4, wtk=  0.01563, kpt=  0.5000  0.1250 -0.2500 (reduced coord)
  -0.28174  -0.10265  -0.03901  -0.00186
 kpt#  39, nband=  4, wtk=  0.01563, kpt= -0.3750  0.0000 -0.2500 (reduced coord)
  -0.30793  -0.07141   0.00807   0.02127
 kpt#  40, nband=  4, wtk=  0.01563, kpt= -0.2500  0.0000 -0.1250 (reduced coord)
  -0.33315  -0.02123   0.04994   0.05247
 kpt#  41, nband=  4, wtk=  0.00781, kpt=  0.1250  0.0000  0.0000 (reduced coord)
  -0.34832   0.03329   0.07847   0.07887
 kpt#  42, nband=  4, wtk=  0.00781, kpt=  0.1250  0.1250  0.1250 (reduced coord)
  -0.34831   0.03269   0.07882   0.07921
 kpt#  43, nband=  4, wtk=  0.00781, kpt=  0.1250  0.2500  0.2500 (reduced coord)
  -0.33312  -0.02173   0.05011   0.05287
 kpt#  44, nband=  4, wtk=  0.00781, kpt=  0.1250  0.3750  0.3750 (reduced coord)
  -0.30789  -0.07179   0.00832   0.02141
 kpt#  45, nband=  4, wtk=  0.00781, kpt=  0.1250  0.5000  0.5000 (reduced coord)
  -0.28308  -0.10677  -0.01749   0.00607
 kpt#  46, nband=  4, wtk=  0.00781, kpt=  0.1250 -0.3750 -0.3750 (reduced coord)
  -0.28311  -0.10658  -0.01768   0.00609
 kpt#  47, nband=  4, wtk=  0.00781, kpt=  0.1250 -0.2500 -0.2500 (reduced coord)
  -0.30794  -0.07132   0.00778   0.02145
 kpt#  48, nband=  4, wtk=  0.00781, kpt=  0.1250 -0.1250 -0.1250 (reduced coord)
  -0.33316  -0.02114   0.05018   0.05212
 kpt#  49, nband=  4, wtk=  0.01563, kpt=  0.2500  0.1250  0.2500 (reduced coord)
  -0.33313  -0.02164   0.05034   0.05252
 kpt#  50, nband=  4, wtk=  0.01563, kpt=  0.2500  0.2500  0.3750 (reduced coord)
  -0.32069  -0.06336   0.02001   0.06523
 prteigrs : prtvol=0 or 1, do not print more k-points.

 Total charge density [el/Bohr^3]
,     Maximum=    9.2701E-02  at reduced coord.    0.1667    0.1667    0.1667
,Next maximum=    9.2541E-02  at reduced coord.    0.1667    0.1667    0.5000
,     Minimum=    2.9515E-03  at reduced coord.    0.7500    0.7500    0.7500
,Next minimum=    3.3880E-03  at reduced coord.    0.8333    0.7500    0.7500

--------------------------------------------------------------------------------
 Components of total free energy (in Hartree) :

    Kinetic energy  =  2.91979994640529E+00
    Hartree energy  =  7.88576536903045E-01
    XC energy       = -3.93301688834791E+00
    Ewald energy    = -8.47988991313938E+00
    PspCore energy  =  7.65414498117115E-01
    Loc. psp. energy= -2.41964579630260E+00
    NL   psp  energy=  5.96080375306754E-01
    >>>>>>>>> Etotal= -9.76268124105768E+00

 Other information on the energy :
    Total energy(eV)= -2.65656066753242E+02 ; Band energy (Ha)=  -7.1353709008E-01
--------------------------------------------------------------------------------

 Cartesian components of stress tensor (hartree/bohr^3)
  sigma(1 1)=  2.88178822E-04  sigma(3 2)= -2.14277992E-08
  sigma(2 2)=  2.88190003E-04  sigma(3 1)= -2.62045072E-06
  sigma(3 3)=  2.88190003E-04  sigma(2 1)= -2.62045072E-06

-Cartesian components of stress tensor (GPa)         [Pressure= -8.4787E+00 GPa]
- sigma(1 1)=  8.47851224E+00  sigma(3 2)= -6.30427513E-04
- sigma(2 2)=  8.47884120E+00  sigma(3 1)= -7.70963089E-02
- sigma(3 3)=  8.47884120E+00  sigma(2 1)= -7.70963089E-02

== END DATASET(S) ==============================================================
================================================================================
  
 -outvars: echo values of variables after computation  --------
     acell    1.0610000000E+01  1.0610000000E+01  1.0610000000E+01 Bohr
       amu    2.69815390E+01  7.49215900E+01
    diemac    9.00000000E+00
      ecut    3.00000000E+00 Hartree
    etotal   -9.7626812411E+00
     fcart   -4.2111401088E-06 -4.7199804548E-04 -4.7199804548E-04
              4.2111401088E-06  4.7199804548E-04  4.7199804548E-04
    irdwfk         1
      iscf         5
       kpt    0.00000000E+00  0.00000000E+00 -1.25000000E-01
              0.00000000E+00  0.00000000E+00 -3.75000000E-01
              0.00000000E+00  1.25000000E-01 -2.50000000E-01
              1.25000000E-01  0.00000000E+00 -2.50000000E-01
              1.25000000E-01  1.25000000E-01 -1.25000000E-01
              2.50000000E-01  0.00000000E+00 -1.25000000E-01
              0.00000000E+00  1.25000000E-01  5.00000000E-01
              0.00000000E+00  2.50000000E-01 -3.75000000E-01
              1.25000000E-01  0.00000000E+00  5.00000000E-01
              1.25000000E-01  1.25000000E-01 -3.75000000E-01
              1.25000000E-01  2.50000000E-01 -2.50000000E-01
              1.25000000E-01  3.75000000E-01 -1.25000000E-01
              2.50000000E-01  0.00000000E+00 -3.75000000E-01
              2.50000000E-01  1.25000000E-01 -2.50000000E-01
              2.50000000E-01  2.50000000E-01 -1.25000000E-01
              3.75000000E-01  0.00000000E+00 -2.50000000E-01
              3.75000000E-01  1.25000000E-01 -1.25000000E-01
              5.00000000E-01  0.00000000E+00 -1.25000000E-01
              0.00000000E+00  1.25000000E-01  2.50000000E-01
              0.00000000E+00  2.50000000E-01  3.75000000E-01
              0.00000000E+00  3.75000000E-01  5.00000000E-01
              1.25000000E-01  0.00000000E+00  2.50000000E-01
              1.25000000E-01  1.25000000E-01  3.75000000E-01
              1.25000000E-01  2.50000000E-01  5.00000000E-01
              1.25000000E-01  3.75000000E-01 -3.75000000E-01
              1.25000000E-01  5.00000000E-01 -2.50000000E-01
              1.25000000E-01 -3.75000000E-01 -1.25000000E-01
              2.50000000E-01  0.00000000E+00  3.75000000E-01
              2.50000000E-01  1.25000000E-01  5.00000000E-01
              2.50000000E-01  2.50000000E-01 -3.75000000E-01
              2.50000000E-01  3.75000000E-01 -2.50000000E-01
              2.50000000E-01  5.00000000E-01 -1.25000000E-01
              3.75000000E-01  0.00000000E+00  5.00000000E-01
              3.75000000E-01  1.25000000E-01 -3.75000000E-01
              3.75000000E-01  2.50000000E-01 -2.50000000E-01
              3.75000000E-01  3.75000000E-01 -1.25000000E-01
              5.00000000E-01  0.00000000E+00 -3.75000000E-01
              5.00000000E-01  1.25000000E-01 -2.50000000E-01
             -3.75000000E-01  0.00000000E+00 -2.50000000E-01
             -2.50000000E-01  0.00000000E+00 -1.25000000E-01
              1.25000000E-01  0.00000000E+00  0.00000000E+00
              1.25000000E-01  1.25000000E-01  1.25000000E-01
              1.25000000E-01  2.50000000E-01  2.50000000E-01
              1.25000000E-01  3.75000000E-01  3.75000000E-01
              1.25000000E-01  5.00000000E-01  5.00000000E-01
              1.25000000E-01 -3.75000000E-01 -3.75000000E-01
              1.25000000E-01 -2.50000000E-01 -2.50000000E-01
              1.25000000E-01 -1.25000000E-01 -1.25000000E-01
              2.50000000E-01  1.25000000E-01  2.50000000E-01
              2.50000000E-01  2.50000000E-01  3.75000000E-01
                       outvar1 : prtvol=0, do not print more k-points.
   kptrlen    4.24400000E+01
    kptopt         1
  kptrlatt   -4  4  4   4 -4  4   4  4 -4
P    mkmem        72
     natom         2
     nband         4
     ngfft        12      12      12
      nkpt        72
     nstep        15
      nsym         2
    ntypat         2
       occ    2.000000  2.000000  2.000000  2.000000
     rprim    0.0000000000E+00  5.0000000000E-01  5.0000000000E-01
              5.0000000000E-01  0.0000000000E+00  5.0000000000E-01
              5.0000000000E-01  5.0000000000E-01  0.0000000000E+00
    shiftk    5.00000000E-01  5.00000000E-01  5.00000000E-01
    strten    2.8817882203E-04  2.8819000324E-04  2.8819000324E-04
             -2.1427799241E-08 -2.6204507187E-06 -2.6204507187E-06
    symrel    1  0  0   0  1  0   0  0  1       1  0  0   0  0  1   0  1  0
    tolvrs    1.00000000E-12
     typat    1  2
       wtk      0.01563    0.01563    0.01563    0.01563    0.01563    0.01563
                0.01563    0.01563    0.01563    0.01563    0.01563    0.01563
                0.01563    0.01563    0.01563    0.01563    0.01563    0.01563
                0.01563    0.01563    0.01563    0.01563    0.01563    0.01563
                0.01563    0.01563    0.01563    0.01563    0.01563    0.01563
                0.01563    0.01563    0.01563    0.01563    0.01563    0.01563
                0.01563    0.01563    0.01563    0.01563    0.00781    0.00781
                0.00781    0.00781    0.00781    0.00781    0.00781    0.00781
                0.01563    0.01563
                outvar1 : prtvol=0, do not print more k-points.
    xangst    0.0000000000E+00  2.8072850916E-03  2.8072850916E-03
              1.4036425458E+00  1.4036425458E+00  1.4036425458E+00
     xcart    0.0000000000E+00  5.3050000000E-03  5.3050000000E-03
              2.6525000000E+00  2.6525000000E+00  2.6525000000E+00
      xred    1.0000000000E-03  0.0000000000E+00  0.0000000000E+00
              2.5000000000E-01  2.5000000000E-01  2.5000000000E-01
     znucl     13.00000   33.00000

================================================================================

- Total cpu        time (s,m,h):          4.5        0.08      0.001
- Total wall clock time (s,m,h):          4.5        0.08      0.001

- For major independent code sections, cpu and wall times (sec),
- as well as % of the total time and number of calls 

- routine                 cpu     %       wall     %      number of calls 
-                                                          (-1=no count)
- fourwf(pot)            1.691  37.5      1.667  37.0          19406
- pspini                 0.385   8.5      0.384   8.5              1
- timing timab           0.349   7.7      0.350   7.8             11
- vtowfk(ssdiag)         0.336   7.5      0.331   7.3             -1
- nonlop(apply)          0.286   6.3      0.270   6.0          19406
- status                 0.262   5.8      0.259   5.7          14890
- getghc-other           0.241   5.3      0.243   5.4             -1
- fourwf(den)            0.186   4.1      0.191   4.2           3744
- projbd                 0.159   3.5      0.198   4.4          30748
- invars2                0.103   2.3      0.102   2.3              1
- vtorho-kpt loop        0.087   1.9      0.102   2.3             12
- vtowfk(contrib)        0.076   1.7      0.081   1.8            864
- nonlop(forces)         0.061   1.4      0.054   1.2           3456
- vtowfk  (1)            0.035   0.8      0.031   0.7            864
- abinit(2)              0.029   0.6      0.030   0.7              1
- 55   others            0.064   1.4      0.069   1.5

- subtotal               4.350  96.5      4.362  96.8

================================================================================

 Calculation completed.
.Delivered    9 WARNINGs and   1 COMMENTs to log file.
+Overall time at end (sec) : cpu=          4.5  wall=          4.5
