
 **** DERIVATIVE DATABASE ****    
+DDB, Version number     10929

 AlAs phonons on 4 4 4 mesh                                                                                                                                                                                                                                              

     natom         2
      nkpt       256
    nsppol         1
      nsym        24
    ntypat         2
    occopt         1
     nband         4
     acell  0.10610000000000D+02  0.10610000000000D+02  0.10610000000000D+02
       amu  0.26981539000000D+02  0.74921590000000D+02
   dilatmx  0.10000000000000D+01
      ecut  0.30000000000000D+01
    ecutsm  0.00000000000000D+00
     intxc         0
      iscf         5
       ixc         1
       kpt -0.12500000000000D+00 -0.25000000000000D+00  0.00000000000000D+00
           -0.25000000000000D+00 -0.12500000000000D+00  0.00000000000000D+00
           -0.12500000000000D+00 -0.12500000000000D+00  0.12500000000000D+00
           -0.12500000000000D+00  0.50000000000000D+00  0.00000000000000D+00
           -0.25000000000000D+00 -0.37500000000000D+00  0.00000000000000D+00
           -0.12500000000000D+00 -0.37500000000000D+00  0.12500000000000D+00
           -0.37500000000000D+00 -0.25000000000000D+00  0.00000000000000D+00
           -0.25000000000000D+00 -0.25000000000000D+00  0.12500000000000D+00
           -0.12500000000000D+00 -0.25000000000000D+00  0.25000000000000D+00
            0.50000000000000D+00 -0.12500000000000D+00  0.00000000000000D+00
           -0.37500000000000D+00 -0.12500000000000D+00  0.12500000000000D+00
           -0.25000000000000D+00 -0.12500000000000D+00  0.25000000000000D+00
           -0.12500000000000D+00 -0.12500000000000D+00  0.37500000000000D+00
           -0.12500000000000D+00  0.25000000000000D+00  0.00000000000000D+00
           -0.25000000000000D+00  0.37500000000000D+00  0.00000000000000D+00
           -0.12500000000000D+00  0.37500000000000D+00  0.12500000000000D+00
           -0.37500000000000D+00  0.50000000000000D+00  0.00000000000000D+00
           -0.25000000000000D+00  0.50000000000000D+00  0.12500000000000D+00
           -0.12500000000000D+00  0.50000000000000D+00  0.25000000000000D+00
            0.50000000000000D+00 -0.37500000000000D+00  0.00000000000000D+00
           -0.37500000000000D+00 -0.37500000000000D+00  0.12500000000000D+00
           -0.25000000000000D+00 -0.37500000000000D+00  0.25000000000000D+00
           -0.12500000000000D+00 -0.37500000000000D+00  0.37500000000000D+00
            0.37500000000000D+00 -0.25000000000000D+00  0.00000000000000D+00
            0.50000000000000D+00 -0.25000000000000D+00  0.12500000000000D+00
           -0.37500000000000D+00 -0.25000000000000D+00  0.25000000000000D+00
           -0.25000000000000D+00 -0.25000000000000D+00  0.37500000000000D+00
           -0.12500000000000D+00 -0.25000000000000D+00  0.50000000000000D+00
            0.25000000000000D+00 -0.12500000000000D+00  0.00000000000000D+00
            0.37500000000000D+00 -0.12500000000000D+00  0.12500000000000D+00
            0.50000000000000D+00 -0.12500000000000D+00  0.25000000000000D+00
           -0.37500000000000D+00 -0.12500000000000D+00  0.37500000000000D+00
           -0.25000000000000D+00 -0.12500000000000D+00  0.50000000000000D+00
           -0.12500000000000D+00 -0.12500000000000D+00 -0.37500000000000D+00
           -0.12500000000000D+00  0.00000000000000D+00  0.00000000000000D+00
           -0.25000000000000D+00  0.12500000000000D+00  0.00000000000000D+00
           -0.12500000000000D+00  0.12500000000000D+00  0.12500000000000D+00
           -0.37500000000000D+00  0.25000000000000D+00  0.00000000000000D+00
           -0.25000000000000D+00  0.25000000000000D+00  0.12500000000000D+00
           -0.12500000000000D+00  0.25000000000000D+00  0.25000000000000D+00
            0.50000000000000D+00  0.37500000000000D+00  0.00000000000000D+00
           -0.37500000000000D+00  0.37500000000000D+00  0.12500000000000D+00
           -0.25000000000000D+00  0.37500000000000D+00  0.25000000000000D+00
           -0.12500000000000D+00  0.37500000000000D+00  0.37500000000000D+00
            0.37500000000000D+00  0.50000000000000D+00  0.00000000000000D+00
            0.50000000000000D+00  0.50000000000000D+00  0.12500000000000D+00
           -0.37500000000000D+00  0.50000000000000D+00  0.25000000000000D+00
           -0.25000000000000D+00  0.50000000000000D+00  0.37500000000000D+00
           -0.12500000000000D+00  0.50000000000000D+00  0.50000000000000D+00
            0.25000000000000D+00 -0.37500000000000D+00  0.00000000000000D+00
            0.37500000000000D+00 -0.37500000000000D+00  0.12500000000000D+00
            0.50000000000000D+00 -0.37500000000000D+00  0.25000000000000D+00
           -0.37500000000000D+00 -0.37500000000000D+00  0.37500000000000D+00
           -0.25000000000000D+00 -0.37500000000000D+00  0.50000000000000D+00
           -0.12500000000000D+00 -0.37500000000000D+00 -0.37500000000000D+00
            0.12500000000000D+00 -0.25000000000000D+00  0.00000000000000D+00
            0.25000000000000D+00 -0.25000000000000D+00  0.12500000000000D+00
            0.37500000000000D+00 -0.25000000000000D+00  0.25000000000000D+00
            0.50000000000000D+00 -0.25000000000000D+00  0.37500000000000D+00
           -0.37500000000000D+00 -0.25000000000000D+00  0.50000000000000D+00
           -0.25000000000000D+00 -0.25000000000000D+00 -0.37500000000000D+00
           -0.12500000000000D+00 -0.25000000000000D+00 -0.25000000000000D+00
            0.00000000000000D+00 -0.12500000000000D+00  0.00000000000000D+00
            0.12500000000000D+00 -0.12500000000000D+00  0.12500000000000D+00
            0.25000000000000D+00 -0.12500000000000D+00  0.25000000000000D+00
            0.37500000000000D+00 -0.12500000000000D+00  0.37500000000000D+00
            0.50000000000000D+00 -0.12500000000000D+00  0.50000000000000D+00
           -0.37500000000000D+00 -0.12500000000000D+00 -0.37500000000000D+00
           -0.25000000000000D+00 -0.12500000000000D+00 -0.25000000000000D+00
           -0.12500000000000D+00 -0.12500000000000D+00 -0.12500000000000D+00
           -0.37500000000000D+00  0.00000000000000D+00  0.00000000000000D+00
           -0.25000000000000D+00  0.00000000000000D+00  0.12500000000000D+00
           -0.12500000000000D+00  0.00000000000000D+00  0.25000000000000D+00
            0.50000000000000D+00  0.12500000000000D+00  0.00000000000000D+00
           -0.37500000000000D+00  0.12500000000000D+00  0.12500000000000D+00
           -0.25000000000000D+00  0.12500000000000D+00  0.25000000000000D+00
           -0.12500000000000D+00  0.12500000000000D+00  0.37500000000000D+00
            0.37500000000000D+00  0.25000000000000D+00  0.00000000000000D+00
            0.50000000000000D+00  0.25000000000000D+00  0.12500000000000D+00
           -0.37500000000000D+00  0.25000000000000D+00  0.25000000000000D+00
           -0.25000000000000D+00  0.25000000000000D+00  0.37500000000000D+00
           -0.12500000000000D+00  0.25000000000000D+00  0.50000000000000D+00
            0.25000000000000D+00  0.37500000000000D+00  0.00000000000000D+00
            0.37500000000000D+00  0.37500000000000D+00  0.12500000000000D+00
            0.50000000000000D+00  0.37500000000000D+00  0.25000000000000D+00
           -0.37500000000000D+00  0.37500000000000D+00  0.37500000000000D+00
           -0.25000000000000D+00  0.37500000000000D+00  0.50000000000000D+00
           -0.12500000000000D+00  0.37500000000000D+00 -0.37500000000000D+00
            0.12500000000000D+00  0.50000000000000D+00  0.00000000000000D+00
            0.25000000000000D+00  0.50000000000000D+00  0.12500000000000D+00
            0.37500000000000D+00  0.50000000000000D+00  0.25000000000000D+00
            0.50000000000000D+00  0.50000000000000D+00  0.37500000000000D+00
           -0.37500000000000D+00  0.50000000000000D+00  0.50000000000000D+00
           -0.25000000000000D+00  0.50000000000000D+00 -0.37500000000000D+00
           -0.12500000000000D+00  0.50000000000000D+00 -0.25000000000000D+00
            0.00000000000000D+00 -0.37500000000000D+00  0.00000000000000D+00
            0.12500000000000D+00 -0.37500000000000D+00  0.12500000000000D+00
            0.25000000000000D+00 -0.37500000000000D+00  0.25000000000000D+00
            0.37500000000000D+00 -0.37500000000000D+00  0.37500000000000D+00
            0.50000000000000D+00 -0.37500000000000D+00  0.50000000000000D+00
           -0.37500000000000D+00 -0.37500000000000D+00 -0.37500000000000D+00
           -0.25000000000000D+00 -0.37500000000000D+00 -0.25000000000000D+00
           -0.12500000000000D+00 -0.37500000000000D+00 -0.12500000000000D+00
            0.00000000000000D+00 -0.25000000000000D+00  0.12500000000000D+00
            0.12500000000000D+00 -0.25000000000000D+00  0.25000000000000D+00
            0.25000000000000D+00 -0.25000000000000D+00  0.37500000000000D+00
            0.37500000000000D+00 -0.25000000000000D+00  0.50000000000000D+00
            0.50000000000000D+00 -0.25000000000000D+00 -0.37500000000000D+00
           -0.37500000000000D+00 -0.25000000000000D+00 -0.25000000000000D+00
           -0.25000000000000D+00 -0.25000000000000D+00 -0.12500000000000D+00
            0.00000000000000D+00 -0.12500000000000D+00  0.25000000000000D+00
            0.12500000000000D+00 -0.12500000000000D+00  0.37500000000000D+00
            0.25000000000000D+00 -0.12500000000000D+00  0.50000000000000D+00
            0.37500000000000D+00 -0.12500000000000D+00 -0.37500000000000D+00
            0.50000000000000D+00 -0.12500000000000D+00 -0.25000000000000D+00
           -0.37500000000000D+00 -0.12500000000000D+00 -0.12500000000000D+00
            0.37500000000000D+00  0.00000000000000D+00  0.00000000000000D+00
            0.50000000000000D+00  0.00000000000000D+00  0.12500000000000D+00
           -0.37500000000000D+00  0.00000000000000D+00  0.25000000000000D+00
           -0.25000000000000D+00  0.00000000000000D+00  0.37500000000000D+00
           -0.12500000000000D+00  0.00000000000000D+00  0.50000000000000D+00
            0.25000000000000D+00  0.12500000000000D+00  0.00000000000000D+00
            0.37500000000000D+00  0.12500000000000D+00  0.12500000000000D+00
            0.50000000000000D+00  0.12500000000000D+00  0.25000000000000D+00
           -0.37500000000000D+00  0.12500000000000D+00  0.37500000000000D+00
           -0.25000000000000D+00  0.12500000000000D+00  0.50000000000000D+00
           -0.12500000000000D+00  0.12500000000000D+00 -0.37500000000000D+00
            0.12500000000000D+00  0.25000000000000D+00  0.00000000000000D+00
            0.25000000000000D+00  0.25000000000000D+00  0.12500000000000D+00
            0.37500000000000D+00  0.25000000000000D+00  0.25000000000000D+00
            0.50000000000000D+00  0.25000000000000D+00  0.37500000000000D+00
           -0.37500000000000D+00  0.25000000000000D+00  0.50000000000000D+00
           -0.25000000000000D+00  0.25000000000000D+00 -0.37500000000000D+00
           -0.12500000000000D+00  0.25000000000000D+00 -0.25000000000000D+00
            0.00000000000000D+00  0.37500000000000D+00  0.00000000000000D+00
            0.12500000000000D+00  0.37500000000000D+00  0.12500000000000D+00
            0.25000000000000D+00  0.37500000000000D+00  0.25000000000000D+00
            0.37500000000000D+00  0.37500000000000D+00  0.37500000000000D+00
            0.50000000000000D+00  0.37500000000000D+00  0.50000000000000D+00
           -0.37500000000000D+00  0.37500000000000D+00 -0.37500000000000D+00
           -0.25000000000000D+00  0.37500000000000D+00 -0.25000000000000D+00
           -0.12500000000000D+00  0.37500000000000D+00 -0.12500000000000D+00
            0.00000000000000D+00  0.50000000000000D+00  0.12500000000000D+00
            0.12500000000000D+00  0.50000000000000D+00  0.25000000000000D+00
            0.25000000000000D+00  0.50000000000000D+00  0.37500000000000D+00
            0.37500000000000D+00  0.50000000000000D+00  0.50000000000000D+00
            0.50000000000000D+00  0.50000000000000D+00 -0.37500000000000D+00
           -0.37500000000000D+00  0.50000000000000D+00 -0.25000000000000D+00
           -0.25000000000000D+00  0.50000000000000D+00 -0.12500000000000D+00
            0.00000000000000D+00 -0.37500000000000D+00  0.25000000000000D+00
            0.12500000000000D+00 -0.37500000000000D+00  0.37500000000000D+00
            0.25000000000000D+00 -0.37500000000000D+00  0.50000000000000D+00
            0.37500000000000D+00 -0.37500000000000D+00 -0.37500000000000D+00
            0.50000000000000D+00 -0.37500000000000D+00 -0.25000000000000D+00
           -0.37500000000000D+00 -0.37500000000000D+00 -0.12500000000000D+00
            0.00000000000000D+00 -0.25000000000000D+00  0.37500000000000D+00
            0.12500000000000D+00 -0.25000000000000D+00  0.50000000000000D+00
            0.25000000000000D+00 -0.25000000000000D+00 -0.37500000000000D+00
            0.37500000000000D+00 -0.25000000000000D+00 -0.25000000000000D+00
            0.50000000000000D+00 -0.25000000000000D+00 -0.12500000000000D+00
            0.00000000000000D+00 -0.12500000000000D+00  0.50000000000000D+00
            0.12500000000000D+00 -0.12500000000000D+00 -0.37500000000000D+00
            0.25000000000000D+00 -0.12500000000000D+00 -0.25000000000000D+00
            0.37500000000000D+00 -0.12500000000000D+00 -0.12500000000000D+00
            0.12500000000000D+00  0.00000000000000D+00  0.00000000000000D+00
            0.25000000000000D+00  0.00000000000000D+00  0.12500000000000D+00
            0.37500000000000D+00  0.00000000000000D+00  0.25000000000000D+00
            0.50000000000000D+00  0.00000000000000D+00  0.37500000000000D+00
           -0.37500000000000D+00  0.00000000000000D+00  0.50000000000000D+00
           -0.25000000000000D+00  0.00000000000000D+00 -0.37500000000000D+00
           -0.12500000000000D+00  0.00000000000000D+00 -0.25000000000000D+00
            0.00000000000000D+00  0.12500000000000D+00  0.00000000000000D+00
            0.12500000000000D+00  0.12500000000000D+00  0.12500000000000D+00
            0.25000000000000D+00  0.12500000000000D+00  0.25000000000000D+00
            0.37500000000000D+00  0.12500000000000D+00  0.37500000000000D+00
            0.50000000000000D+00  0.12500000000000D+00  0.50000000000000D+00
           -0.37500000000000D+00  0.12500000000000D+00 -0.37500000000000D+00
           -0.25000000000000D+00  0.12500000000000D+00 -0.25000000000000D+00
           -0.12500000000000D+00  0.12500000000000D+00 -0.12500000000000D+00
            0.00000000000000D+00  0.25000000000000D+00  0.12500000000000D+00
            0.12500000000000D+00  0.25000000000000D+00  0.25000000000000D+00
            0.25000000000000D+00  0.25000000000000D+00  0.37500000000000D+00
            0.37500000000000D+00  0.25000000000000D+00  0.50000000000000D+00
            0.50000000000000D+00  0.25000000000000D+00 -0.37500000000000D+00
           -0.37500000000000D+00  0.25000000000000D+00 -0.25000000000000D+00
           -0.25000000000000D+00  0.25000000000000D+00 -0.12500000000000D+00
            0.00000000000000D+00  0.37500000000000D+00  0.25000000000000D+00
            0.12500000000000D+00  0.37500000000000D+00  0.37500000000000D+00
            0.25000000000000D+00  0.37500000000000D+00  0.50000000000000D+00
            0.37500000000000D+00  0.37500000000000D+00 -0.37500000000000D+00
            0.50000000000000D+00  0.37500000000000D+00 -0.25000000000000D+00
           -0.37500000000000D+00  0.37500000000000D+00 -0.12500000000000D+00
            0.00000000000000D+00  0.50000000000000D+00  0.37500000000000D+00
            0.12500000000000D+00  0.50000000000000D+00  0.50000000000000D+00
            0.25000000000000D+00  0.50000000000000D+00 -0.37500000000000D+00
            0.37500000000000D+00  0.50000000000000D+00 -0.25000000000000D+00
            0.50000000000000D+00  0.50000000000000D+00 -0.12500000000000D+00
            0.00000000000000D+00 -0.37500000000000D+00  0.50000000000000D+00
            0.12500000000000D+00 -0.37500000000000D+00 -0.37500000000000D+00
            0.25000000000000D+00 -0.37500000000000D+00 -0.25000000000000D+00
            0.37500000000000D+00 -0.37500000000000D+00 -0.12500000000000D+00
            0.00000000000000D+00 -0.25000000000000D+00 -0.37500000000000D+00
            0.12500000000000D+00 -0.25000000000000D+00 -0.25000000000000D+00
            0.25000000000000D+00 -0.25000000000000D+00 -0.12500000000000D+00
            0.00000000000000D+00 -0.12500000000000D+00 -0.25000000000000D+00
            0.12500000000000D+00 -0.12500000000000D+00 -0.12500000000000D+00
            0.00000000000000D+00  0.00000000000000D+00  0.12500000000000D+00
            0.12500000000000D+00  0.00000000000000D+00  0.25000000000000D+00
            0.25000000000000D+00  0.00000000000000D+00  0.37500000000000D+00
            0.37500000000000D+00  0.00000000000000D+00  0.50000000000000D+00
            0.50000000000000D+00  0.00000000000000D+00 -0.37500000000000D+00
           -0.37500000000000D+00  0.00000000000000D+00 -0.25000000000000D+00
           -0.25000000000000D+00  0.00000000000000D+00 -0.12500000000000D+00
            0.00000000000000D+00  0.12500000000000D+00  0.25000000000000D+00
            0.12500000000000D+00  0.12500000000000D+00  0.37500000000000D+00
            0.25000000000000D+00  0.12500000000000D+00  0.50000000000000D+00
            0.37500000000000D+00  0.12500000000000D+00 -0.37500000000000D+00
            0.50000000000000D+00  0.12500000000000D+00 -0.25000000000000D+00
           -0.37500000000000D+00  0.12500000000000D+00 -0.12500000000000D+00
            0.00000000000000D+00  0.25000000000000D+00  0.37500000000000D+00
            0.12500000000000D+00  0.25000000000000D+00  0.50000000000000D+00
            0.25000000000000D+00  0.25000000000000D+00 -0.37500000000000D+00
            0.37500000000000D+00  0.25000000000000D+00 -0.25000000000000D+00
            0.50000000000000D+00  0.25000000000000D+00 -0.12500000000000D+00
            0.00000000000000D+00  0.37500000000000D+00  0.50000000000000D+00
            0.12500000000000D+00  0.37500000000000D+00 -0.37500000000000D+00
            0.25000000000000D+00  0.37500000000000D+00 -0.25000000000000D+00
            0.37500000000000D+00  0.37500000000000D+00 -0.12500000000000D+00
            0.00000000000000D+00  0.50000000000000D+00 -0.37500000000000D+00
            0.12500000000000D+00  0.50000000000000D+00 -0.25000000000000D+00
            0.25000000000000D+00  0.50000000000000D+00 -0.12500000000000D+00
            0.00000000000000D+00 -0.37500000000000D+00 -0.25000000000000D+00
            0.12500000000000D+00 -0.37500000000000D+00 -0.12500000000000D+00
            0.00000000000000D+00 -0.25000000000000D+00 -0.12500000000000D+00
            0.00000000000000D+00  0.00000000000000D+00  0.37500000000000D+00
            0.12500000000000D+00  0.00000000000000D+00  0.50000000000000D+00
            0.25000000000000D+00  0.00000000000000D+00 -0.37500000000000D+00
            0.37500000000000D+00  0.00000000000000D+00 -0.25000000000000D+00
            0.50000000000000D+00  0.00000000000000D+00 -0.12500000000000D+00
            0.00000000000000D+00  0.12500000000000D+00  0.50000000000000D+00
            0.12500000000000D+00  0.12500000000000D+00 -0.37500000000000D+00
            0.25000000000000D+00  0.12500000000000D+00 -0.25000000000000D+00
            0.37500000000000D+00  0.12500000000000D+00 -0.12500000000000D+00
            0.00000000000000D+00  0.25000000000000D+00 -0.37500000000000D+00
            0.12500000000000D+00  0.25000000000000D+00 -0.25000000000000D+00
            0.25000000000000D+00  0.25000000000000D+00 -0.12500000000000D+00
            0.00000000000000D+00  0.37500000000000D+00 -0.25000000000000D+00
            0.12500000000000D+00  0.37500000000000D+00 -0.12500000000000D+00
            0.00000000000000D+00  0.50000000000000D+00 -0.12500000000000D+00
            0.00000000000000D+00  0.00000000000000D+00 -0.37500000000000D+00
            0.12500000000000D+00  0.00000000000000D+00 -0.25000000000000D+00
            0.25000000000000D+00  0.00000000000000D+00 -0.12500000000000D+00
            0.00000000000000D+00  0.12500000000000D+00 -0.25000000000000D+00
            0.12500000000000D+00  0.12500000000000D+00 -0.12500000000000D+00
            0.00000000000000D+00  0.25000000000000D+00 -0.12500000000000D+00
            0.00000000000000D+00  0.00000000000000D+00 -0.12500000000000D+00
    kptnrm  0.10000000000000D+01
     ngfft        12   12   12
    nspden         1
   nspinor         1
       occ  0.20000000000000D+01  0.20000000000000D+01  0.20000000000000D+01
            0.20000000000000D+01
     rprim  0.00000000000000D+00  0.50000000000000D+00  0.50000000000000D+00
            0.50000000000000D+00  0.00000000000000D+00  0.50000000000000D+00
            0.50000000000000D+00  0.50000000000000D+00  0.00000000000000D+00
     sciss  0.00000000000000D+00
    spinat  0.00000000000000D+00  0.00000000000000D+00  0.00000000000000D+00
            0.00000000000000D+00  0.00000000000000D+00  0.00000000000000D+00
    symafm         1    1    1    1    1    1    1    1    1    1    1    1
                   1    1    1    1    1    1    1    1    1    1    1    1
    symrel         1    0    0    0    1    0    0    0    1
                   0   -1    1    0   -1    0    1   -1    0
                  -1    0    0   -1    0    1   -1    1    0
                   0    1   -1    1    0   -1    0    0   -1
                  -1    0    0   -1    1    0   -1    0    1
                   0   -1    1    1   -1    0    0   -1    0
                   1    0    0    0    0    1    0    1    0
                   0    1   -1    0    0   -1    1    0   -1
                  -1    0    1   -1    1    0   -1    0    0
                   0   -1    0    1   -1    0    0   -1    1
                   1    0   -1    0    0   -1    0    1   -1
                   0    1    0    0    0    1    1    0    0
                   1    0   -1    0    1   -1    0    0   -1
                   0   -1    0    0   -1    1    1   -1    0
                  -1    0    1   -1    0    0   -1    1    0
                   0    1    0    1    0    0    0    0    1
                   0    0   -1    0    1   -1    1    0   -1
                   1   -1    0    0   -1    1    0   -1    0
                   0    0    1    1    0    0    0    1    0
                  -1    1    0   -1    0    0   -1    0    1
                   0    0    1    0    1    0    1    0    0
                   1   -1    0    0   -1    0    0   -1    1
                   0    0   -1    1    0   -1    0    1   -1
                  -1    1    0   -1    0    1   -1    0    0
     tnons  0.00000000000000D+00  0.00000000000000D+00  0.00000000000000D+00
            0.00000000000000D+00  0.00000000000000D+00  0.00000000000000D+00
            0.00000000000000D+00  0.00000000000000D+00  0.00000000000000D+00
            0.00000000000000D+00  0.00000000000000D+00  0.00000000000000D+00
            0.00000000000000D+00  0.00000000000000D+00  0.00000000000000D+00
            0.00000000000000D+00  0.00000000000000D+00  0.00000000000000D+00
            0.00000000000000D+00  0.00000000000000D+00  0.00000000000000D+00
            0.00000000000000D+00  0.00000000000000D+00  0.00000000000000D+00
            0.00000000000000D+00  0.00000000000000D+00  0.00000000000000D+00
            0.00000000000000D+00  0.00000000000000D+00  0.00000000000000D+00
            0.00000000000000D+00  0.00000000000000D+00  0.00000000000000D+00
            0.00000000000000D+00  0.00000000000000D+00  0.00000000000000D+00
            0.00000000000000D+00  0.00000000000000D+00  0.00000000000000D+00
            0.00000000000000D+00  0.00000000000000D+00  0.00000000000000D+00
            0.00000000000000D+00  0.00000000000000D+00  0.00000000000000D+00
            0.00000000000000D+00  0.00000000000000D+00  0.00000000000000D+00
            0.00000000000000D+00  0.00000000000000D+00  0.00000000000000D+00
            0.00000000000000D+00  0.00000000000000D+00  0.00000000000000D+00
            0.00000000000000D+00  0.00000000000000D+00  0.00000000000000D+00
            0.00000000000000D+00  0.00000000000000D+00  0.00000000000000D+00
            0.00000000000000D+00  0.00000000000000D+00  0.00000000000000D+00
            0.00000000000000D+00  0.00000000000000D+00  0.00000000000000D+00
            0.00000000000000D+00  0.00000000000000D+00  0.00000000000000D+00
            0.00000000000000D+00  0.00000000000000D+00  0.00000000000000D+00
    tolwfr  0.10000000000000D+01
   tphysel  0.00000000000000D+00
    tsmear  0.40000000000000D-01
     typat         1    2
       wtk  0.39062500000000D-02  0.39062500000000D-02  0.39062500000000D-02
            0.39062500000000D-02  0.39062500000000D-02  0.39062500000000D-02
            0.39062500000000D-02  0.39062500000000D-02  0.39062500000000D-02
            0.39062500000000D-02  0.39062500000000D-02  0.39062500000000D-02
            0.39062500000000D-02  0.39062500000000D-02  0.39062500000000D-02
            0.39062500000000D-02  0.39062500000000D-02  0.39062500000000D-02
            0.39062500000000D-02  0.39062500000000D-02  0.39062500000000D-02
            0.39062500000000D-02  0.39062500000000D-02  0.39062500000000D-02
            0.39062500000000D-02  0.39062500000000D-02  0.39062500000000D-02
            0.39062500000000D-02  0.39062500000000D-02  0.39062500000000D-02
            0.39062500000000D-02  0.39062500000000D-02  0.39062500000000D-02
            0.39062500000000D-02  0.39062500000000D-02  0.39062500000000D-02
            0.39062500000000D-02  0.39062500000000D-02  0.39062500000000D-02
            0.39062500000000D-02  0.39062500000000D-02  0.39062500000000D-02
            0.39062500000000D-02  0.39062500000000D-02  0.39062500000000D-02
            0.39062500000000D-02  0.39062500000000D-02  0.39062500000000D-02
            0.39062500000000D-02  0.39062500000000D-02  0.39062500000000D-02
            0.39062500000000D-02  0.39062500000000D-02  0.39062500000000D-02
            0.39062500000000D-02  0.39062500000000D-02  0.39062500000000D-02
            0.39062500000000D-02  0.39062500000000D-02  0.39062500000000D-02
            0.39062500000000D-02  0.39062500000000D-02  0.39062500000000D-02
            0.39062500000000D-02  0.39062500000000D-02  0.39062500000000D-02
            0.39062500000000D-02  0.39062500000000D-02  0.39062500000000D-02
            0.39062500000000D-02  0.39062500000000D-02  0.39062500000000D-02
            0.39062500000000D-02  0.39062500000000D-02  0.39062500000000D-02
            0.39062500000000D-02  0.39062500000000D-02  0.39062500000000D-02
            0.39062500000000D-02  0.39062500000000D-02  0.39062500000000D-02
            0.39062500000000D-02  0.39062500000000D-02  0.39062500000000D-02
            0.39062500000000D-02  0.39062500000000D-02  0.39062500000000D-02
            0.39062500000000D-02  0.39062500000000D-02  0.39062500000000D-02
            0.39062500000000D-02  0.39062500000000D-02  0.39062500000000D-02
            0.39062500000000D-02  0.39062500000000D-02  0.39062500000000D-02
            0.39062500000000D-02  0.39062500000000D-02  0.39062500000000D-02
            0.39062500000000D-02  0.39062500000000D-02  0.39062500000000D-02
            0.39062500000000D-02  0.39062500000000D-02  0.39062500000000D-02
            0.39062500000000D-02  0.39062500000000D-02  0.39062500000000D-02
            0.39062500000000D-02  0.39062500000000D-02  0.39062500000000D-02
            0.39062500000000D-02  0.39062500000000D-02  0.39062500000000D-02
            0.39062500000000D-02  0.39062500000000D-02  0.39062500000000D-02
            0.39062500000000D-02  0.39062500000000D-02  0.39062500000000D-02
            0.39062500000000D-02  0.39062500000000D-02  0.39062500000000D-02
            0.39062500000000D-02  0.39062500000000D-02  0.39062500000000D-02
            0.39062500000000D-02  0.39062500000000D-02  0.39062500000000D-02
            0.39062500000000D-02  0.39062500000000D-02  0.39062500000000D-02
            0.39062500000000D-02  0.39062500000000D-02  0.39062500000000D-02
            0.39062500000000D-02  0.39062500000000D-02  0.39062500000000D-02
            0.39062500000000D-02  0.39062500000000D-02  0.39062500000000D-02
            0.39062500000000D-02  0.39062500000000D-02  0.39062500000000D-02
            0.39062500000000D-02  0.39062500000000D-02  0.39062500000000D-02
            0.39062500000000D-02  0.39062500000000D-02  0.39062500000000D-02
            0.39062500000000D-02  0.39062500000000D-02  0.39062500000000D-02
            0.39062500000000D-02  0.39062500000000D-02  0.39062500000000D-02
            0.39062500000000D-02  0.39062500000000D-02  0.39062500000000D-02
            0.39062500000000D-02  0.39062500000000D-02  0.39062500000000D-02
            0.39062500000000D-02  0.39062500000000D-02  0.39062500000000D-02
            0.39062500000000D-02  0.39062500000000D-02  0.39062500000000D-02
            0.39062500000000D-02  0.39062500000000D-02  0.39062500000000D-02
            0.39062500000000D-02  0.39062500000000D-02  0.39062500000000D-02
            0.39062500000000D-02  0.39062500000000D-02  0.39062500000000D-02
            0.39062500000000D-02  0.39062500000000D-02  0.39062500000000D-02
            0.39062500000000D-02  0.39062500000000D-02  0.39062500000000D-02
            0.39062500000000D-02  0.39062500000000D-02  0.39062500000000D-02
            0.39062500000000D-02  0.39062500000000D-02  0.39062500000000D-02
            0.39062500000000D-02  0.39062500000000D-02  0.39062500000000D-02
            0.39062500000000D-02  0.39062500000000D-02  0.39062500000000D-02
            0.39062500000000D-02  0.39062500000000D-02  0.39062500000000D-02
            0.39062500000000D-02  0.39062500000000D-02  0.39062500000000D-02
            0.39062500000000D-02  0.39062500000000D-02  0.39062500000000D-02
            0.39062500000000D-02  0.39062500000000D-02  0.39062500000000D-02
            0.39062500000000D-02  0.39062500000000D-02  0.39062500000000D-02
            0.39062500000000D-02  0.39062500000000D-02  0.39062500000000D-02
            0.39062500000000D-02  0.39062500000000D-02  0.39062500000000D-02
            0.39062500000000D-02  0.39062500000000D-02  0.39062500000000D-02
            0.39062500000000D-02  0.39062500000000D-02  0.39062500000000D-02
            0.39062500000000D-02  0.39062500000000D-02  0.39062500000000D-02
            0.39062500000000D-02  0.39062500000000D-02  0.39062500000000D-02
            0.39062500000000D-02  0.39062500000000D-02  0.39062500000000D-02
            0.39062500000000D-02  0.39062500000000D-02  0.39062500000000D-02
            0.39062500000000D-02  0.39062500000000D-02  0.39062500000000D-02
            0.39062500000000D-02  0.39062500000000D-02  0.39062500000000D-02
            0.39062500000000D-02  0.39062500000000D-02  0.39062500000000D-02
            0.39062500000000D-02  0.39062500000000D-02  0.39062500000000D-02
            0.39062500000000D-02  0.39062500000000D-02  0.39062500000000D-02
            0.39062500000000D-02  0.39062500000000D-02  0.39062500000000D-02
            0.39062500000000D-02  0.39062500000000D-02  0.39062500000000D-02
            0.39062500000000D-02
      xred  0.00000000000000D+00  0.00000000000000D+00  0.00000000000000D+00
            0.25000000000000D+00  0.25000000000000D+00  0.25000000000000D+00
     znucl  0.13000000000000D+02  0.33000000000000D+02
      zion  0.30000000000000D+01  0.50000000000000D+01
 
  Description of the potentials (KB energies)
  vrsio8 (for pseudopotentials)= 10929
  dimekb =  3       lmnmax=  3       usepaw=  0
  Atom type=    1   pspso=  0   nekb=   2
  iln lpsang iproj  ekb(:)
     1     0     1     1.7687444E+00  0.0000000E+00
     2     1     1     0.0000000E+00  9.0055415E-01
  Atom type=    2   pspso=  0   nekb=   1
  iln lpsang iproj  ekb(:)
     1     0     1     8.3875106E-01
 
 **** Database of total energy derivatives ****
 Number of data blocks=    8
  
 2rd derivatives (non-stat.)  - # elements :      81
 qpt  0.00000000E+00  0.00000000E+00  0.00000000E+00   1.0
   1   1   1   1  0.50078591836113D+01  0.00000000000000D+00
   2   1   1   1  0.25039295959814D+01  0.00000000000000D+00
   3   1   1   1  0.25039295959814D+01  0.00000000000000D+00
   1   2   1   1 -0.50077765401296D+01  0.73319347970208D-18
   2   2   1   1 -0.25038883549907D+01 -0.22662441458424D-17
   3   2   1   1 -0.25038883549907D+01 -0.32760426586439D-17
   1   4   1   1 -0.56274744675051D+01  0.00000000000000D+00
   2   4   1   1 -0.10982974196772D-07  0.00000000000000D+00
   3   4   1   1 -0.10982974196772D-07  0.00000000000000D+00
   1   1   2   1  0.25039295959814D+01  0.00000000000000D+00
   2   1   2   1  0.50078591836113D+01  0.00000000000000D+00
   3   1   2   1  0.25039295876299D+01  0.00000000000000D+00
   1   2   2   1 -0.25038954014229D+01 -0.22662441458424D-17
   2   2   2   1 -0.50077765401296D+01  0.28893229789905D-17
   3   2   2   1 -0.25038811387067D+01 -0.21964918420478D-17
   1   4   2   1 -0.19092383851637D-07  0.00000000000000D+00
   2   4   2   1 -0.56274745087218D+01  0.00000000000000D+00
   3   4   2   1  0.19092383851637D-07  0.00000000000000D+00
   1   1   3   1  0.25039295959814D+01  0.00000000000000D+00
   2   1   3   1  0.25039295876299D+01  0.00000000000000D+00
   3   1   3   1  0.50078591752599D+01  0.00000000000000D+00
   1   2   3   1 -0.25038954014229D+01 -0.32760426586439D-17
   2   2   3   1 -0.25038881851389D+01 -0.21964918420478D-17
   3   2   3   1 -0.50077693238456D+01 -0.72872500766219D-17
   1   4   3   1  0.41216731296808D-07  0.00000000000000D+00
   2   4   3   1 -0.41216731296808D-07  0.00000000000000D+00
   3   4   3   1 -0.56274744484127D+01  0.00000000000000D+00
   1   1   1   2 -0.50077908218092D+01 -0.73319347970208D-18
   2   1   1   2 -0.25038954014229D+01  0.22662441458424D-17
   3   1   1   2 -0.25038954014229D+01  0.32760426586439D-17
   1   2   1   2  0.50077787281336D+01  0.00000000000000D+00
   2   2   1   2  0.25038893477903D+01  0.00000000000000D+00
   3   2   1   2  0.25038893477902D+01  0.00000000000000D+00
   1   4   1   2 -0.44781700500758D+02  0.00000000000000D+00
   2   4   1   2  0.86402596188861D-08  0.00000000000000D+00
   3   4   1   2  0.86402596188861D-08  0.00000000000000D+00
   1   1   2   2 -0.25038883549907D+01  0.22662441458424D-17
   2   1   2   2 -0.50077908218092D+01 -0.28893229789905D-17
   3   1   2   2 -0.25039024668185D+01  0.21964918420478D-17
   1   2   2   2  0.25038893477903D+01  0.00000000000000D+00
   2   2   2   2  0.50077787281346D+01  0.00000000000000D+00
   3   2   2   2  0.25038893803439D+01  0.00000000000000D+00
   1   4   2   2  0.22736198562007D-06  0.00000000000000D+00
   2   4   2   2 -0.44781699985902D+02  0.00000000000000D+00
   3   4   2   2 -0.22736198562007D-06  0.00000000000000D+00
   1   1   3   2 -0.25038883549907D+01  0.32760426586439D-17
   2   1   3   2 -0.25038954203863D+01  0.21964918420478D-17
   3   1   3   2 -0.50077978872047D+01  0.72872500766219D-17
   1   2   3   2  0.25038893477902D+01  0.00000000000000D+00
   2   2   3   2  0.25038893803439D+01  0.00000000000000D+00
   3   2   3   2  0.50077787606878D+01  0.00000000000000D+00
   1   4   3   2 -0.51485696792427D-06  0.00000000000000D+00
   2   4   3   2  0.51485696792427D-06  0.00000000000000D+00
   3   4   3   2 -0.44781700728120D+02  0.00000000000000D+00
   1   1   1   4 -0.56274965115351D+01  0.00000000000000D+00
   2   1   1   4 -0.19092383851637D-07  0.00000000000000D+00
   3   1   1   4  0.41216731296808D-07  0.00000000000000D+00
   1   2   1   4 -0.44781668656251D+02  0.00000000000000D+00
   2   2   1   4  0.22736198562007D-06  0.00000000000000D+00
   3   2   1   4 -0.51485696792427D-06  0.00000000000000D+00
   1   4   1   4 -0.21900831719165D+03  0.00000000000000D+00
   2   4   1   4  0.73002772588918D+02  0.00000000000000D+00
   3   4   1   4  0.73002771986926D+02  0.00000000000000D+00
   1   1   2   4 -0.10982974196772D-07  0.00000000000000D+00
   2   1   2   4 -0.56274965527519D+01  0.00000000000000D+00
   3   1   2   4 -0.19250782123982D-07  0.00000000000000D+00
   1   2   2   4  0.86402596188861D-08  0.00000000000000D+00
   2   2   2   4 -0.44781668141394D+02  0.00000000000000D+00
   3   2   2   4  0.49757645965337D-06  0.00000000000000D+00
   1   4   2   4  0.73002772588918D+02  0.00000000000000D+00
   2   4   2   4 -0.21900831719165D+03  0.00000000000000D+00
   3   4   2   4  0.73002772615805D+02  0.00000000000000D+00
   1   1   3   4 -0.10982974196772D-07  0.00000000000000D+00
   2   1   3   4  0.19092383851637D-07  0.00000000000000D+00
   3   1   3   4 -0.56274964924428D+01  0.00000000000000D+00
   1   2   3   4  0.86402596188861D-08  0.00000000000000D+00
   2   2   3   4 -0.22736198562007D-06  0.00000000000000D+00
   3   2   3   4 -0.44781668883613D+02  0.00000000000000D+00
   1   4   3   4  0.73002771986926D+02  0.00000000000000D+00
   2   4   3   4  0.73002772615805D+02  0.00000000000000D+00
   3   4   3   4 -0.21900831719165D+03  0.00000000000000D+00
  
 2rd derivatives (non-stat.)  - # elements :      36
 qpt  2.50000000E-01  0.00000000E+00  0.00000000E+00   1.0
   1   1   1   1  0.60199143877120D+01 -0.46347282336361D-16
   2   1   1   1  0.24130386290786D+01  0.29983650244857D-06
   3   1   1   1  0.24130386290786D+01  0.29983650268662D-06
   1   2   1   1 -0.32844866969735D+01 -0.23483067899728D+01
   2   2   1   1 -0.22820152543411D+01 -0.16845213737273D+00
   3   2   1   1 -0.22820152543411D+01 -0.16845213737272D+00
   1   1   2   1  0.24130453529000D+01 -0.15089114345891D-05
   2   1   2   1  0.48260771656322D+01  0.11386184578630D-16
   3   1   2   1  0.24130389282313D+01  0.20644290187987D-06
   1   2   2   1 -0.22820025290254D+01 -0.16845627317303D+00
   2   2   2   1 -0.45640381939071D+01 -0.33690511879379D+00
   3   2   2   1 -0.22820182450658D+01 -0.16845212788710D+00
   1   1   3   1  0.24130386290786D+01 -0.29983650262154D-06
   2   1   3   1  0.24130389282313D+01 -0.20644290188899D-06
   3   1   3   1  0.48260771656322D+01 -0.16158839132251D-17
   1   2   3   1 -0.22820156601460D+01 -0.16845250423522D+00
   2   2   3   1 -0.22820177921553D+01 -0.16845403628035D+00
   3   2   3   1 -0.45640381939071D+01 -0.33690511879379D+00
   1   1   1   2 -0.32844874904215D+01  0.23483075890402D+01
   2   1   1   2 -0.22820156601460D+01  0.16845250423521D+00
   3   1   1   2 -0.22820156601460D+01  0.16845250423522D+00
   1   2   1   2  0.59965350753985D+01  0.83339601608583D-16
   2   2   1   2  0.25317729168191D+01 -0.63503514491042D-06
   3   2   1   2  0.25317729168191D+01 -0.63503514497415D-06
   1   1   2   2 -0.22820209774959D+01  0.16845033380925D+00
   2   1   2   2 -0.45640373172654D+01  0.33690881929575D+00
   3   1   2   2 -0.22820177921553D+01  0.16845403628035D+00
   1   2   2   2  0.25317602028454D+01 -0.56844641472077D-05
   2   2   2   2  0.50635527935583D+01  0.21897639427839D-15
   3   2   2   2  0.25317742025214D+01  0.41818299056713D-07
   1   1   3   2 -0.22820152543411D+01  0.16845213737272D+00
   2   1   3   2 -0.22820182450658D+01  0.16845212788710D+00
   3   1   3   2 -0.45640373172654D+01  0.33690881929576D+00
   1   2   3   2  0.25317729168191D+01  0.63503514551052D-06
   2   2   3   2  0.25317742025214D+01 -0.41818298862334D-07
   3   2   3   2  0.50635527935584D+01  0.20292606626035D-15
  
 2rd derivatives (non-stat.)  - # elements :      36
 qpt  5.00000000E-01  0.00000000E+00  0.00000000E+00   1.0
   1   1   1   1  0.63142155078317D+01  0.00000000000000D+00
   2   1   1   1  0.24061221412711D+01 -0.43218000236717D-05
   3   1   1   1  0.24061221412711D+01 -0.43218000237676D-05
   1   2   1   1 -0.84323306470729D+00 -0.10684702589415D-04
   2   2   1   1 -0.22069847626564D+01  0.57632210386057D-05
   3   2   1   1 -0.22069847626564D+01  0.57632210385476D-05
   1   1   2   1  0.24061227906209D+01 -0.17139464167093D-04
   2   1   2   1  0.48122563554335D+01  0.00000000000000D+00
   3   1   2   1  0.24061288627862D+01 -0.32953143904368D-05
   1   2   2   1 -0.22069778875141D+01 -0.11419692939513D-04
   2   2   2   1 -0.44140136890710D+01  0.61018918043061D-07
   3   2   2   1 -0.22070053313090D+01  0.28644075566857D-06
   1   1   3   1  0.24061221412711D+01  0.43218000237676D-05
   2   1   3   1  0.24061288627862D+01  0.32953143904368D-05
   3   1   3   1  0.48122563554335D+01  0.00000000000000D+00
   1   2   3   1 -0.22070257203590D+01  0.97512074462419D-05
   2   2   3   1 -0.22070318866939D+01  0.84867339450992D-05
   3   2   3   1 -0.44140136890710D+01  0.61018918039883D-07
   1   1   1   2 -0.84319577009027D+00 -0.20610939740302D-04
   2   1   1   2 -0.22070257203590D+01 -0.97512074464171D-05
   3   1   1   2 -0.22070257203590D+01 -0.97512074462419D-05
   1   2   1   2  0.61714396618452D+01 -0.12992691722534D-15
   2   2   1   2  0.25268181198794D+01 -0.39161696695220D-05
   3   2   1   2  0.25268181198792D+01 -0.39161696691231D-05
   1   1   2   2 -0.22070255775327D+01 -0.18946653658442D-04
   2   1   2   2 -0.44140773911251D+01 -0.91651255436455D-05
   3   1   2   2 -0.22070318866939D+01 -0.84867339450992D-05
   1   2   2   2  0.25268087094747D+01  0.15758757047508D-04
   2   2   2   2  0.50537669244865D+01  0.14388156354334D-16
   3   2   2   2  0.25268608775378D+01  0.35722723177943D-05
   1   1   3   2 -0.22069847626564D+01 -0.57632210385476D-05
   2   1   3   2 -0.22070053313090D+01 -0.28644075566857D-06
   3   1   3   2 -0.44140773911251D+01 -0.91651255436423D-05
   1   2   3   2  0.25268181198792D+01  0.39161696690382D-05
   2   2   3   2  0.25268608775378D+01 -0.35722723177543D-05
   3   2   3   2  0.50537669244867D+01 -0.56916650596281D-16
  
 2rd derivatives (non-stat.)  - # elements :      36
 qpt  2.50000000E-01  2.50000000E-01  0.00000000E+00   1.0
   1   1   1   1  0.57575676828347D+01  0.15270870683956D-16
   2   1   1   1  0.35263998161249D+01 -0.36229575974057D-07
   3   1   1   1  0.22311687855089D+01  0.40517823839624D-07
   1   2   1   1 -0.27225658630186D+01 -0.27225654414204D+01
   2   2   1   1 -0.24163781886971D+01 -0.67322734003729D+00
   3   2   1   1 -0.20493358984797D+01 -0.30618473615201D+00
   1   1   2   1  0.35263998161249D+01  0.36229576037759D-07
   2   1   2   1  0.57575676828347D+01  0.16709080736064D-15
   3   1   2   1  0.22311678667098D+01  0.36229576110539D-07
   1   2   2   1 -0.24163758445501D+01 -0.67321355025792D+00
   2   2   2   1 -0.27225654414204D+01 -0.27225658630186D+01
   3   2   2   1 -0.20493523127607D+01 -0.30618959687020D+00
   1   1   3   1  0.22311687855089D+01 -0.40517823908016D-07
   2   1   3   1  0.22311678667098D+01 -0.36229575901278D-07
   3   1   3   1  0.44623357334196D+01 -0.26864573309349D-17
   1   2   3   1 -0.20493419832999D+01 -0.30618000271125D+00
   2   2   3   1 -0.20493385229813D+01 -0.30618725272324D+00
   3   2   3   1 -0.40986904141438D+01 -0.61237727119169D+00
   1   1   1   2 -0.27225580563869D+01  0.27225576347889D+01
   2   1   1   2 -0.24163758445501D+01  0.67321355025792D+00
   3   1   1   2 -0.20493419832999D+01  0.30618000271125D+00
   1   2   1   2  0.58482299844789D+01  0.72566548728155D-16
   2   2   1   2  0.32359516953540D+01 -0.34709518173686D-06
   3   2   1   2  0.26122707319127D+01 -0.86431178344285D-06
   1   1   2   2 -0.24163781886971D+01  0.67322734003729D+00
   2   1   2   2 -0.27225576347889D+01  0.27225580563869D+01
   3   1   2   2 -0.20493307163496D+01  0.30617944609179D+00
   1   2   2   2  0.32359516953540D+01  0.34709518200279D-06
   2   2   2   2  0.58482299844799D+01  0.33664975071260D-15
   3   2   2   2  0.26122782891255D+01  0.34709518214078D-06
   1   1   3   2 -0.20493358984797D+01  0.30618473615201D+00
   2   1   3   2 -0.20493445061289D+01  0.30618179023874D+00
   3   1   3   2 -0.40986748008805D+01  0.61236165792848D+00
   1   2   3   2  0.26122707319127D+01  0.86431178322920D-06
   2   2   3   2  0.26122782891255D+01 -0.34709518160810D-06
   3   2   3   2  0.52245565782512D+01 -0.11329383186006D-15
  
 2rd derivatives (non-stat.)  - # elements :      36
 qpt  5.00000000E-01  2.50000000E-01  0.00000000E+00   1.0
   1   1   1   1  0.57623619819596D+01 -0.17745588925576D-16
   2   1   1   1  0.31339953662663D+01  0.31835100816363D+00
   3   1   1   1  0.22170229386239D+01 -0.11583443840064D-04
   1   2   1   1 -0.38909646935270D+00 -0.47570805028752D+00
   2   2   1   1 -0.20231953514878D+01 -0.31992519423320D+00
   3   2   1   1 -0.19750964859517D+01 -0.16327035937844D+00
   1   1   2   1  0.31340109958571D+01 -0.31840899641464D+00
   2   1   2   1  0.53044172074789D+01  0.12465495080948D-16
   3   1   2   1  0.22170283328167D+01 -0.14233043718017D-04
   1   2   2   1 -0.22788906734918D+01 -0.22840291849759D+00
   2   2   2   1 -0.23055249164745D+01 -0.21281734800377D+01
   3   2   2   1 -0.19751097353595D+01 -0.16327666431724D+00
   1   1   3   1  0.22170161220945D+01 -0.28408200834613D-04
   2   1   3   1  0.22170261521687D+01 -0.17618770464592D-04
   3   1   3   1  0.44340616670067D+01 -0.20141033150851D-17
   1   2   3   1 -0.19751132058431D+01 -0.16328384337055D+00
   2   2   3   1 -0.19751141545563D+01 -0.16328371024924D+00
   3   2   3   1 -0.39502165356599D+01 -0.32656593869604D+00
   1   1   1   2 -0.38910778982308D+00  0.47559516551065D+00
   2   1   1   2 -0.22789398351074D+01  0.22834465741922D+00
   3   1   1   2 -0.19751506332390D+01  0.16320835427044D+00
   1   2   1   2  0.61417074153980D+01 -0.40224998605315D-16
   2   2   1   2  0.29856772367830D+01  0.31825068785095D+00
   3   2   1   2  0.26045341500772D+01  0.19036778318085D-04
   1   1   2   2 -0.20232500737165D+01  0.31985511652357D+00
   2   1   2   2 -0.23055422799587D+01  0.21281499324314D+01
   3   1   2   2 -0.19751565749046D+01  0.16321701401696D+00
   1   2   2   2  0.29856480731299D+01 -0.31822855725329D+00
   2   2   2   2  0.57324165404327D+01  0.57408066652748D-16
   3   2   2   2  0.26045766305749D+01  0.26416800298432D-04
   1   1   3   2 -0.19751387311096D+01  0.16319786753971D+00
   2   1   3   2 -0.19751483875221D+01  0.16321389584427D+00
   3   1   3   2 -0.39503116504111D+01  0.32644366048532D+00
   1   2   3   2  0.26045408588436D+01  0.37981180525018D-04
   2   2   3   2  0.26045765165455D+01  0.27063933862647D-04
   3   2   3   2  0.52091915128936D+01  0.89138430261799D-16
  
 2rd derivatives (non-stat.)  - # elements :      36
 qpt -2.50000000E-01  2.50000000E-01  0.00000000E+00   1.0
   1   1   1   1  0.52327650892271D+01  0.21340993941289D-16
   2   1   1   1  0.25084092735018D+01  0.41681325966946D+00
   3   1   1   1  0.23261189823702D+01 -0.21898164985796D-06
   1   2   1   1 -0.25646721807141D+01  0.18789488482818D+01
   2   2   1   1 -0.21091909741534D+01 -0.21542800069862D+00
   3   2   1   1 -0.20476745505248D+01 -0.17600433204505D-07
   1   1   2   1  0.25084092735018D+01 -0.41681325966946D+00
   2   1   2   1  0.52327650951852D+01 -0.70208727509426D-06
   3   1   2   1  0.23261195766458D+01  0.69753067529734D-06
   1   2   2   1 -0.21091943381990D+01  0.21542652898705D+00
   2   2   2   1 -0.25646751930924D+01 -0.18789494743293D+01
   3   2   2   1 -0.20476734525921D+01  0.18755049875332D-05
   1   1   3   1  0.23261197140254D+01 -0.48310562524585D-06
   2   1   3   1  0.23261195766458D+01 -0.69753067517015D-06
   3   1   3   1  0.46522387023537D+01  0.15634175469737D-17
   1   2   3   1 -0.20476732547270D+01 -0.76300009149628D-06
   2   2   3   1 -0.20476750852105D+01 -0.12766674180356D-05
   3   2   3   1 -0.40953508176301D+01 -0.15455305927935D-06
   1   1   1   2 -0.25646638545901D+01 -0.18789578868509D+01
   2   1   1   2 -0.21091943381990D+01 -0.21542652898705D+00
   3   1   1   2 -0.20476747974901D+01 -0.32017180735579D-07
   1   2   1   2  0.58037745404274D+01  0.16564590028598D-15
   2   2   1   2  0.26412936058329D+01  0.34415233256942D+00
   3   2   1   2  0.25458192869819D+01  0.42747460449508D-07
   1   1   2   2 -0.21091909741534D+01  0.21542800069862D+00
   2   1   2   2 -0.25646648189033D+01  0.18789564765826D+01
   3   1   2   2 -0.20476750852105D+01  0.12766674180356D-05
   1   2   2   2  0.26412936058329D+01 -0.34415233256942D+00
   2   2   2   2  0.58037699615563D+01 -0.71072944263519D-06
   3   2   2   2  0.25458081314922D+01  0.28741719788494D-06
   1   1   3   2 -0.20476722226093D+01 -0.16206795171592D-05
   2   1   3   2 -0.20476734525921D+01 -0.18755049875332D-05
   3   1   3   2 -0.40953479844125D+01 -0.24242842847893D-06
   1   2   3   2  0.25458213566994D+01 -0.75347690305917D-06
   2   2   3   2  0.25458081314922D+01 -0.28741719748627D-06
   3   2   3   2  0.50916360648106D+01  0.19672847835792D-16
  
 2rd derivatives (non-stat.)  - # elements :      36
 qpt  5.00000000E-01  5.00000000E-01  0.00000000E+00   1.0
   1   1   1   1  0.61836565951135D+01  0.00000000000000D+00
   2   1   1   1  0.40598975991004D+01  0.12845437950103D-04
   3   1   1   1  0.21237421197750D+01  0.20405170399660D-04
   1   2   1   1 -0.14237549163944D-04  0.11794919516317D-04
   2   2   1   1 -0.19208535998771D+01  0.80040700359806D-05
   3   2   1   1 -0.19208461960641D+01  0.20156409958942D-04
   1   1   2   1  0.40598975991004D+01 -0.12845437950103D-04
   2   1   2   1  0.61836565951135D+01  0.00000000000000D+00
   3   1   2   1  0.21237589960130D+01  0.12845437950103D-04
   1   2   2   1 -0.19208911409969D+01  0.17512329430287D-04
   2   2   2   1  0.74926622120056D-14 -0.38044803205067D-15
   3   2   2   1 -0.19208911409969D+01  0.17512329431862D-04
   1   1   3   1  0.21237421197750D+01 -0.20405170399660D-04
   2   1   3   1  0.21237589960130D+01 -0.12845437950103D-04
   3   1   3   1  0.42475179920261D+01  0.00000000000000D+00
   1   2   3   1 -0.19208934191318D+01  0.16186622510767D-04
   2   2   3   1 -0.19208535998771D+01  0.80040700375562D-05
   3   2   3   1 -0.38417305033248D+01  0.13721479952385D-04
   1   1   1   2  0.77330341578206D-05 -0.29241009306746D-04
   2   1   1   2 -0.19208911409969D+01 -0.17512329430287D-04
   3   1   1   2 -0.19208934191318D+01 -0.16186622510767D-04
   1   2   1   2  0.59880577927594D+01  0.59840632587297D-16
   2   2   1   2  0.33389353772600D+01  0.29563201785139D-05
   3   2   1   2  0.26490356430591D+01 -0.57105022487254D-05
   1   1   2   2 -0.19208535998771D+01 -0.80040700359806D-05
   2   1   2   2  0.74926622120056D-14  0.38044803205067D-15
   3   1   2   2 -0.19208535998771D+01 -0.80040700375562D-05
   1   2   2   2  0.33389353772600D+01 -0.29563201785018D-05
   2   2   2   2  0.59880577927603D+01 -0.92157109435472D-16
   3   2   2   2  0.26491224154999D+01  0.29563201784535D-05
   1   1   3   2 -0.19208461960641D+01 -0.20156409958942D-04
   2   1   3   2 -0.19208911409969D+01 -0.17512329431862D-04
   3   1   3   2 -0.38417524739081D+01  0.37246098380431D-05
   1   2   3   2  0.26490356430591D+01  0.57105022486646D-05
   2   2   3   2  0.26491224154999D+01 -0.29563201785000D-05
   3   2   3   2  0.52982448310001D+01  0.37170117942028D-16
  
 2rd derivatives (non-stat.)  - # elements :      36
 qpt -2.50000000E-01  5.00000000E-01  2.50000000E-01   1.0
   1   1   1   1  0.48496703106445D+01 -0.68327796342839D-16
   2   1   1   1  0.27335277564200D+01  0.23411122037068D+00
   3   1   1   1  0.21161194891317D+01  0.23412270991772D+00
   1   2   1   1 -0.18114052870019D+01  0.18114083103919D+01
   2   2   1   1 -0.19223425772307D+01  0.87945725646428D-05
   3   2   1   1 -0.18114178304475D+01 -0.11091613187281D+00
   1   1   2   1  0.27335282650190D+01 -0.23410029054119D+00
   2   1   2   1  0.54670565635249D+01 -0.23163192147146D-16
   3   1   2   1  0.27335282181593D+01  0.23413205077551D+00
   1   2   2   1 -0.17004696064766D+01  0.89163855416564D-05
   2   2   2   1 -0.24129155640086D-06  0.17811862523433D-04
   3   2   2   1 -0.17004943690334D+01  0.87876663384247D-05
   1   1   3   1  0.21161194891317D+01 -0.23412270991772D+00
   2   1   3   1  0.27335282181593D+01 -0.23413205077551D+00
   3   1   3   1  0.48496708527304D+01 -0.10929829495527D-04
   1   2   3   1 -0.18114209511517D+01  0.11093028329622D+00
   2   2   3   1 -0.19223491393080D+01  0.92379850065747D-05
   3   2   3   1 -0.18114066554138D+01 -0.18114084112964D+01
   1   1   1   2 -0.18114258083230D+01 -0.18114402957484D+01
   2   1   1   2 -0.17004876488778D+01 -0.12101759384423D-04
   3   1   1   2 -0.18114209511517D+01 -0.11093028329622D+00
   1   2   1   2  0.58469211904524D+01 -0.17466158838955D-15
   2   2   1   2  0.30510752251912D+01  0.30320940423082D+00
   3   2   1   2  0.27957415958497D+01  0.30319888776981D+00
   1   1   2   2 -0.19223525533380D+01 -0.90610108232601D-05
   2   1   2   2  0.31927954416006D-06 -0.17987825842465D-04
   3   1   2   2 -0.19223491393080D+01 -0.92379850065747D-05
   1   2   2   2  0.30510645349613D+01 -0.30319201386307D+00
   2   2   2   2  0.61021303624272D+01 -0.10848051101878D-15
   3   2   2   2  0.30510633838589D+01  0.30317315319100D+00
   1   1   3   2 -0.18114178304475D+01  0.11091613187281D+00
   2   1   3   2 -0.17004943690334D+01 -0.87876663384247D-05
   3   1   3   2 -0.18114147131723D+01  0.18114371208040D+01
   1   2   3   2  0.27957415958497D+01 -0.30319888776981D+00
   2   2   3   2  0.30510633838589D+01 -0.30317315319100D+00
   3   2   3   2  0.58469117927274D+01 -0.17390367756006D-04

 List of bloks and their characteristics 
  
 2rd derivatives (non-stat.)  - # elements :      81
 qpt  0.00000000E+00  0.00000000E+00  0.00000000E+00   1.0
  
 2rd derivatives (non-stat.)  - # elements :      36
 qpt  2.50000000E-01  0.00000000E+00  0.00000000E+00   1.0
  
 2rd derivatives (non-stat.)  - # elements :      36
 qpt  5.00000000E-01  0.00000000E+00  0.00000000E+00   1.0
  
 2rd derivatives (non-stat.)  - # elements :      36
 qpt  2.50000000E-01  2.50000000E-01  0.00000000E+00   1.0
  
 2rd derivatives (non-stat.)  - # elements :      36
 qpt  5.00000000E-01  2.50000000E-01  0.00000000E+00   1.0
  
 2rd derivatives (non-stat.)  - # elements :      36
 qpt -2.50000000E-01  2.50000000E-01  0.00000000E+00   1.0
  
 2rd derivatives (non-stat.)  - # elements :      36
 qpt  5.00000000E-01  5.00000000E-01  0.00000000E+00   1.0
  
 2rd derivatives (non-stat.)  - # elements :      36
 qpt -2.50000000E-01  5.00000000E-01  2.50000000E-01   1.0
