
 **** DERIVATIVE DATABASE ****    
+DDB, Version number    990527

 DDB for Nb, 17.0Ha, 8x8x8 MP k-grid. FCC 4x4x4 MP q-grid.                                                                           

  natom         1
   nkpt      1024
 nsppol         1
   nsym        48
  ntypat         1
 occopt         6
  nband         6
  acell  0.61200000000000D+01  0.61200000000000D+01  0.61200000000000D+01
    amu  0.92906380000000D+02
   ecut  0.17000000000000D+02
   iscf         5
    ixc         1
    kpt -0.31250000000000D-01 -0.31250000000000D-01  0.93750000000000D-01
        -0.31250000000000D-01 -0.31250000000000D-01  0.21875000000000D+00
        -0.31250000000000D-01 -0.31250000000000D-01  0.34375000000000D+00
        -0.31250000000000D-01 -0.31250000000000D-01  0.46875000000000D+00
        -0.31250000000000D-01 -0.31250000000000D-01 -0.40625000000000D+00
        -0.31250000000000D-01 -0.31250000000000D-01 -0.28125000000000D+00
        -0.31250000000000D-01 -0.31250000000000D-01 -0.15625000000000D+00
        -0.31250000000000D-01 -0.31250000000000D-01 -0.31250000000000D-01
        -0.93750000000000D-01 -0.93750000000000D-01  0.31250000000000D-01
        -0.31250000000000D-01 -0.15625000000000D+00  0.93750000000000D-01
        -0.15625000000000D+00 -0.31250000000000D-01  0.93750000000000D-01
        -0.93750000000000D-01 -0.93750000000000D-01  0.15625000000000D+00
        -0.31250000000000D-01 -0.15625000000000D+00  0.21875000000000D+00
        -0.15625000000000D+00 -0.31250000000000D-01  0.21875000000000D+00
        -0.93750000000000D-01 -0.93750000000000D-01  0.28125000000000D+00
        -0.31250000000000D-01 -0.15625000000000D+00  0.34375000000000D+00
        -0.15625000000000D+00 -0.31250000000000D-01  0.34375000000000D+00
        -0.93750000000000D-01 -0.93750000000000D-01  0.40625000000000D+00
        -0.31250000000000D-01 -0.15625000000000D+00  0.46875000000000D+00
        -0.15625000000000D+00 -0.31250000000000D-01  0.46875000000000D+00
        -0.93750000000000D-01 -0.93750000000000D-01 -0.46875000000000D+00
        -0.31250000000000D-01 -0.15625000000000D+00 -0.40625000000000D+00
        -0.15625000000000D+00 -0.31250000000000D-01 -0.40625000000000D+00
        -0.93750000000000D-01 -0.93750000000000D-01 -0.34375000000000D+00
        -0.31250000000000D-01 -0.15625000000000D+00 -0.28125000000000D+00
        -0.15625000000000D+00 -0.31250000000000D-01 -0.28125000000000D+00
        -0.93750000000000D-01 -0.93750000000000D-01 -0.21875000000000D+00
        -0.31250000000000D-01 -0.15625000000000D+00 -0.15625000000000D+00
        -0.15625000000000D+00 -0.31250000000000D-01 -0.15625000000000D+00
        -0.93750000000000D-01 -0.93750000000000D-01 -0.93750000000000D-01
        -0.31250000000000D-01 -0.15625000000000D+00 -0.31250000000000D-01
        -0.15625000000000D+00 -0.31250000000000D-01 -0.31250000000000D-01
        -0.93750000000000D-01 -0.21875000000000D+00  0.31250000000000D-01
        -0.31250000000000D-01 -0.28125000000000D+00  0.93750000000000D-01
        -0.21875000000000D+00 -0.93750000000000D-01  0.31250000000000D-01
        -0.15625000000000D+00 -0.15625000000000D+00  0.93750000000000D-01
        -0.93750000000000D-01 -0.21875000000000D+00  0.15625000000000D+00
        -0.31250000000000D-01 -0.28125000000000D+00  0.21875000000000D+00
        -0.28125000000000D+00 -0.31250000000000D-01  0.93750000000000D-01
        -0.21875000000000D+00 -0.93750000000000D-01  0.15625000000000D+00
        -0.15625000000000D+00 -0.15625000000000D+00  0.21875000000000D+00
        -0.93750000000000D-01 -0.21875000000000D+00  0.28125000000000D+00
        -0.31250000000000D-01 -0.28125000000000D+00  0.34375000000000D+00
        -0.28125000000000D+00 -0.31250000000000D-01  0.21875000000000D+00
        -0.21875000000000D+00 -0.93750000000000D-01  0.28125000000000D+00
        -0.15625000000000D+00 -0.15625000000000D+00  0.34375000000000D+00
        -0.93750000000000D-01 -0.21875000000000D+00  0.40625000000000D+00
        -0.31250000000000D-01 -0.28125000000000D+00  0.46875000000000D+00
        -0.28125000000000D+00 -0.31250000000000D-01  0.34375000000000D+00
        -0.21875000000000D+00 -0.93750000000000D-01  0.40625000000000D+00
        -0.15625000000000D+00 -0.15625000000000D+00  0.46875000000000D+00
        -0.93750000000000D-01 -0.21875000000000D+00 -0.46875000000000D+00
        -0.31250000000000D-01 -0.28125000000000D+00 -0.40625000000000D+00
        -0.28125000000000D+00 -0.31250000000000D-01  0.46875000000000D+00
        -0.21875000000000D+00 -0.93750000000000D-01 -0.46875000000000D+00
        -0.15625000000000D+00 -0.15625000000000D+00 -0.40625000000000D+00
        -0.93750000000000D-01 -0.21875000000000D+00 -0.34375000000000D+00
        -0.31250000000000D-01 -0.28125000000000D+00 -0.28125000000000D+00
        -0.28125000000000D+00 -0.31250000000000D-01 -0.40625000000000D+00
        -0.21875000000000D+00 -0.93750000000000D-01 -0.34375000000000D+00
        -0.15625000000000D+00 -0.15625000000000D+00 -0.28125000000000D+00
        -0.93750000000000D-01 -0.21875000000000D+00 -0.21875000000000D+00
        -0.31250000000000D-01 -0.28125000000000D+00 -0.15625000000000D+00
        -0.28125000000000D+00 -0.31250000000000D-01 -0.28125000000000D+00
        -0.21875000000000D+00 -0.93750000000000D-01 -0.21875000000000D+00
        -0.15625000000000D+00 -0.15625000000000D+00 -0.15625000000000D+00
        -0.93750000000000D-01 -0.21875000000000D+00 -0.93750000000000D-01
        -0.31250000000000D-01 -0.28125000000000D+00 -0.31250000000000D-01
        -0.28125000000000D+00 -0.31250000000000D-01 -0.15625000000000D+00
        -0.21875000000000D+00 -0.93750000000000D-01 -0.93750000000000D-01
        -0.15625000000000D+00 -0.15625000000000D+00 -0.31250000000000D-01
        -0.28125000000000D+00 -0.31250000000000D-01 -0.31250000000000D-01
        -0.93750000000000D-01 -0.34375000000000D+00  0.31250000000000D-01
        -0.31250000000000D-01 -0.40625000000000D+00  0.93750000000000D-01
        -0.21875000000000D+00 -0.21875000000000D+00  0.31250000000000D-01
        -0.15625000000000D+00 -0.28125000000000D+00  0.93750000000000D-01
        -0.93750000000000D-01 -0.34375000000000D+00  0.15625000000000D+00
        -0.31250000000000D-01 -0.40625000000000D+00  0.21875000000000D+00
        -0.34375000000000D+00 -0.93750000000000D-01  0.31250000000000D-01
        -0.28125000000000D+00 -0.15625000000000D+00  0.93750000000000D-01
        -0.21875000000000D+00 -0.21875000000000D+00  0.15625000000000D+00
        -0.15625000000000D+00 -0.28125000000000D+00  0.21875000000000D+00
        -0.93750000000000D-01 -0.34375000000000D+00  0.28125000000000D+00
        -0.31250000000000D-01 -0.40625000000000D+00  0.34375000000000D+00
        -0.40625000000000D+00 -0.31250000000000D-01  0.93750000000000D-01
        -0.34375000000000D+00 -0.93750000000000D-01  0.15625000000000D+00
        -0.28125000000000D+00 -0.15625000000000D+00  0.21875000000000D+00
        -0.21875000000000D+00 -0.21875000000000D+00  0.28125000000000D+00
        -0.15625000000000D+00 -0.28125000000000D+00  0.34375000000000D+00
        -0.93750000000000D-01 -0.34375000000000D+00  0.40625000000000D+00
        -0.31250000000000D-01 -0.40625000000000D+00  0.46875000000000D+00
        -0.40625000000000D+00 -0.31250000000000D-01  0.21875000000000D+00
        -0.34375000000000D+00 -0.93750000000000D-01  0.28125000000000D+00
        -0.28125000000000D+00 -0.15625000000000D+00  0.34375000000000D+00
        -0.21875000000000D+00 -0.21875000000000D+00  0.40625000000000D+00
        -0.15625000000000D+00 -0.28125000000000D+00  0.46875000000000D+00
        -0.93750000000000D-01 -0.34375000000000D+00 -0.46875000000000D+00
        -0.31250000000000D-01 -0.40625000000000D+00 -0.40625000000000D+00
        -0.40625000000000D+00 -0.31250000000000D-01  0.34375000000000D+00
        -0.34375000000000D+00 -0.93750000000000D-01  0.40625000000000D+00
        -0.28125000000000D+00 -0.15625000000000D+00  0.46875000000000D+00
        -0.21875000000000D+00 -0.21875000000000D+00 -0.46875000000000D+00
        -0.15625000000000D+00 -0.28125000000000D+00 -0.40625000000000D+00
        -0.93750000000000D-01 -0.34375000000000D+00 -0.34375000000000D+00
        -0.31250000000000D-01 -0.40625000000000D+00 -0.28125000000000D+00
        -0.40625000000000D+00 -0.31250000000000D-01  0.46875000000000D+00
        -0.34375000000000D+00 -0.93750000000000D-01 -0.46875000000000D+00
        -0.28125000000000D+00 -0.15625000000000D+00 -0.40625000000000D+00
        -0.21875000000000D+00 -0.21875000000000D+00 -0.34375000000000D+00
        -0.15625000000000D+00 -0.28125000000000D+00 -0.28125000000000D+00
        -0.93750000000000D-01 -0.34375000000000D+00 -0.21875000000000D+00
        -0.31250000000000D-01 -0.40625000000000D+00 -0.15625000000000D+00
        -0.40625000000000D+00 -0.31250000000000D-01 -0.40625000000000D+00
        -0.34375000000000D+00 -0.93750000000000D-01 -0.34375000000000D+00
        -0.28125000000000D+00 -0.15625000000000D+00 -0.28125000000000D+00
        -0.21875000000000D+00 -0.21875000000000D+00 -0.21875000000000D+00
        -0.15625000000000D+00 -0.28125000000000D+00 -0.15625000000000D+00
        -0.93750000000000D-01 -0.34375000000000D+00 -0.93750000000000D-01
        -0.31250000000000D-01 -0.40625000000000D+00 -0.31250000000000D-01
        -0.40625000000000D+00 -0.31250000000000D-01 -0.28125000000000D+00
        -0.34375000000000D+00 -0.93750000000000D-01 -0.21875000000000D+00
        -0.28125000000000D+00 -0.15625000000000D+00 -0.15625000000000D+00
        -0.21875000000000D+00 -0.21875000000000D+00 -0.93750000000000D-01
        -0.15625000000000D+00 -0.28125000000000D+00 -0.31250000000000D-01
        -0.40625000000000D+00 -0.31250000000000D-01 -0.15625000000000D+00
        -0.34375000000000D+00 -0.93750000000000D-01 -0.93750000000000D-01
        -0.28125000000000D+00 -0.15625000000000D+00 -0.31250000000000D-01
        -0.40625000000000D+00 -0.31250000000000D-01 -0.31250000000000D-01
        -0.93750000000000D-01 -0.46875000000000D+00  0.31250000000000D-01
        -0.31250000000000D-01  0.46875000000000D+00  0.93750000000000D-01
        -0.21875000000000D+00 -0.34375000000000D+00  0.31250000000000D-01
        -0.15625000000000D+00 -0.40625000000000D+00  0.93750000000000D-01
        -0.93750000000000D-01 -0.46875000000000D+00  0.15625000000000D+00
        -0.31250000000000D-01  0.46875000000000D+00  0.21875000000000D+00
        -0.34375000000000D+00 -0.21875000000000D+00  0.31250000000000D-01
        -0.28125000000000D+00 -0.28125000000000D+00  0.93750000000000D-01
        -0.21875000000000D+00 -0.34375000000000D+00  0.15625000000000D+00
        -0.15625000000000D+00 -0.40625000000000D+00  0.21875000000000D+00
        -0.93750000000000D-01 -0.46875000000000D+00  0.28125000000000D+00
        -0.31250000000000D-01  0.46875000000000D+00  0.34375000000000D+00
        -0.46875000000000D+00 -0.93750000000000D-01  0.31250000000000D-01
        -0.40625000000000D+00 -0.15625000000000D+00  0.93750000000000D-01
        -0.34375000000000D+00 -0.21875000000000D+00  0.15625000000000D+00
        -0.28125000000000D+00 -0.28125000000000D+00  0.21875000000000D+00
        -0.21875000000000D+00 -0.34375000000000D+00  0.28125000000000D+00
        -0.15625000000000D+00 -0.40625000000000D+00  0.34375000000000D+00
        -0.93750000000000D-01 -0.46875000000000D+00  0.40625000000000D+00
        -0.31250000000000D-01  0.46875000000000D+00  0.46875000000000D+00
         0.46875000000000D+00 -0.31250000000000D-01  0.93750000000000D-01
        -0.46875000000000D+00 -0.93750000000000D-01  0.15625000000000D+00
        -0.40625000000000D+00 -0.15625000000000D+00  0.21875000000000D+00
        -0.34375000000000D+00 -0.21875000000000D+00  0.28125000000000D+00
        -0.28125000000000D+00 -0.28125000000000D+00  0.34375000000000D+00
        -0.21875000000000D+00 -0.34375000000000D+00  0.40625000000000D+00
        -0.15625000000000D+00 -0.40625000000000D+00  0.46875000000000D+00
        -0.93750000000000D-01 -0.46875000000000D+00 -0.46875000000000D+00
        -0.31250000000000D-01  0.46875000000000D+00 -0.40625000000000D+00
         0.46875000000000D+00 -0.31250000000000D-01  0.21875000000000D+00
        -0.46875000000000D+00 -0.93750000000000D-01  0.28125000000000D+00
        -0.40625000000000D+00 -0.15625000000000D+00  0.34375000000000D+00
        -0.34375000000000D+00 -0.21875000000000D+00  0.40625000000000D+00
        -0.28125000000000D+00 -0.28125000000000D+00  0.46875000000000D+00
        -0.21875000000000D+00 -0.34375000000000D+00 -0.46875000000000D+00
        -0.15625000000000D+00 -0.40625000000000D+00 -0.40625000000000D+00
        -0.93750000000000D-01 -0.46875000000000D+00 -0.34375000000000D+00
        -0.31250000000000D-01  0.46875000000000D+00 -0.28125000000000D+00
         0.46875000000000D+00 -0.31250000000000D-01  0.34375000000000D+00
        -0.46875000000000D+00 -0.93750000000000D-01  0.40625000000000D+00
        -0.40625000000000D+00 -0.15625000000000D+00  0.46875000000000D+00
        -0.34375000000000D+00 -0.21875000000000D+00 -0.46875000000000D+00
        -0.28125000000000D+00 -0.28125000000000D+00 -0.40625000000000D+00
        -0.21875000000000D+00 -0.34375000000000D+00 -0.34375000000000D+00
        -0.15625000000000D+00 -0.40625000000000D+00 -0.28125000000000D+00
        -0.93750000000000D-01 -0.46875000000000D+00 -0.21875000000000D+00
        -0.31250000000000D-01  0.46875000000000D+00 -0.15625000000000D+00
         0.46875000000000D+00 -0.31250000000000D-01  0.46875000000000D+00
        -0.46875000000000D+00 -0.93750000000000D-01 -0.46875000000000D+00
        -0.40625000000000D+00 -0.15625000000000D+00 -0.40625000000000D+00
        -0.34375000000000D+00 -0.21875000000000D+00 -0.34375000000000D+00
        -0.28125000000000D+00 -0.28125000000000D+00 -0.28125000000000D+00
        -0.21875000000000D+00 -0.34375000000000D+00 -0.21875000000000D+00
        -0.15625000000000D+00 -0.40625000000000D+00 -0.15625000000000D+00
        -0.93750000000000D-01 -0.46875000000000D+00 -0.93750000000000D-01
        -0.31250000000000D-01  0.46875000000000D+00 -0.31250000000000D-01
         0.46875000000000D+00 -0.31250000000000D-01 -0.40625000000000D+00
        -0.46875000000000D+00 -0.93750000000000D-01 -0.34375000000000D+00
        -0.40625000000000D+00 -0.15625000000000D+00 -0.28125000000000D+00
        -0.34375000000000D+00 -0.21875000000000D+00 -0.21875000000000D+00
        -0.28125000000000D+00 -0.28125000000000D+00 -0.15625000000000D+00
        -0.21875000000000D+00 -0.34375000000000D+00 -0.93750000000000D-01
        -0.15625000000000D+00 -0.40625000000000D+00 -0.31250000000000D-01
         0.46875000000000D+00 -0.31250000000000D-01 -0.28125000000000D+00
        -0.46875000000000D+00 -0.93750000000000D-01 -0.21875000000000D+00
        -0.40625000000000D+00 -0.15625000000000D+00 -0.15625000000000D+00
        -0.34375000000000D+00 -0.21875000000000D+00 -0.93750000000000D-01
        -0.28125000000000D+00 -0.28125000000000D+00 -0.31250000000000D-01
         0.46875000000000D+00 -0.31250000000000D-01 -0.15625000000000D+00
        -0.46875000000000D+00 -0.93750000000000D-01 -0.93750000000000D-01
        -0.40625000000000D+00 -0.15625000000000D+00 -0.31250000000000D-01
         0.46875000000000D+00 -0.31250000000000D-01 -0.31250000000000D-01
        -0.93750000000000D-01  0.40625000000000D+00  0.31250000000000D-01
        -0.31250000000000D-01  0.34375000000000D+00  0.93750000000000D-01
        -0.21875000000000D+00 -0.46875000000000D+00  0.31250000000000D-01
        -0.15625000000000D+00  0.46875000000000D+00  0.93750000000000D-01
        -0.93750000000000D-01  0.40625000000000D+00  0.15625000000000D+00
        -0.31250000000000D-01  0.34375000000000D+00  0.21875000000000D+00
        -0.34375000000000D+00 -0.34375000000000D+00  0.31250000000000D-01
        -0.28125000000000D+00 -0.40625000000000D+00  0.93750000000000D-01
        -0.21875000000000D+00 -0.46875000000000D+00  0.15625000000000D+00
        -0.15625000000000D+00  0.46875000000000D+00  0.21875000000000D+00
        -0.93750000000000D-01  0.40625000000000D+00  0.28125000000000D+00
        -0.31250000000000D-01  0.34375000000000D+00  0.34375000000000D+00
        -0.46875000000000D+00 -0.21875000000000D+00  0.31250000000000D-01
        -0.40625000000000D+00 -0.28125000000000D+00  0.93750000000000D-01
        -0.34375000000000D+00 -0.34375000000000D+00  0.15625000000000D+00
        -0.28125000000000D+00 -0.40625000000000D+00  0.21875000000000D+00
        -0.21875000000000D+00 -0.46875000000000D+00  0.28125000000000D+00
        -0.15625000000000D+00  0.46875000000000D+00  0.34375000000000D+00
        -0.93750000000000D-01  0.40625000000000D+00  0.40625000000000D+00
        -0.31250000000000D-01  0.34375000000000D+00  0.46875000000000D+00
         0.40625000000000D+00 -0.93750000000000D-01  0.31250000000000D-01
         0.46875000000000D+00 -0.15625000000000D+00  0.93750000000000D-01
        -0.46875000000000D+00 -0.21875000000000D+00  0.15625000000000D+00
        -0.40625000000000D+00 -0.28125000000000D+00  0.21875000000000D+00
        -0.34375000000000D+00 -0.34375000000000D+00  0.28125000000000D+00
        -0.28125000000000D+00 -0.40625000000000D+00  0.34375000000000D+00
        -0.21875000000000D+00 -0.46875000000000D+00  0.40625000000000D+00
        -0.15625000000000D+00  0.46875000000000D+00  0.46875000000000D+00
        -0.93750000000000D-01  0.40625000000000D+00 -0.46875000000000D+00
        -0.31250000000000D-01  0.34375000000000D+00 -0.40625000000000D+00
         0.34375000000000D+00 -0.31250000000000D-01  0.93750000000000D-01
         0.40625000000000D+00 -0.93750000000000D-01  0.15625000000000D+00
         0.46875000000000D+00 -0.15625000000000D+00  0.21875000000000D+00
        -0.46875000000000D+00 -0.21875000000000D+00  0.28125000000000D+00
        -0.40625000000000D+00 -0.28125000000000D+00  0.34375000000000D+00
        -0.34375000000000D+00 -0.34375000000000D+00  0.40625000000000D+00
        -0.28125000000000D+00 -0.40625000000000D+00  0.46875000000000D+00
        -0.21875000000000D+00 -0.46875000000000D+00 -0.46875000000000D+00
        -0.15625000000000D+00  0.46875000000000D+00 -0.40625000000000D+00
        -0.93750000000000D-01  0.40625000000000D+00 -0.34375000000000D+00
        -0.31250000000000D-01  0.34375000000000D+00 -0.28125000000000D+00
         0.34375000000000D+00 -0.31250000000000D-01  0.21875000000000D+00
         0.40625000000000D+00 -0.93750000000000D-01  0.28125000000000D+00
         0.46875000000000D+00 -0.15625000000000D+00  0.34375000000000D+00
        -0.46875000000000D+00 -0.21875000000000D+00  0.40625000000000D+00
        -0.40625000000000D+00 -0.28125000000000D+00  0.46875000000000D+00
        -0.34375000000000D+00 -0.34375000000000D+00 -0.46875000000000D+00
        -0.28125000000000D+00 -0.40625000000000D+00 -0.40625000000000D+00
        -0.21875000000000D+00 -0.46875000000000D+00 -0.34375000000000D+00
        -0.15625000000000D+00  0.46875000000000D+00 -0.28125000000000D+00
        -0.93750000000000D-01  0.40625000000000D+00 -0.21875000000000D+00
        -0.31250000000000D-01  0.34375000000000D+00 -0.15625000000000D+00
         0.34375000000000D+00 -0.31250000000000D-01  0.34375000000000D+00
         0.40625000000000D+00 -0.93750000000000D-01  0.40625000000000D+00
         0.46875000000000D+00 -0.15625000000000D+00  0.46875000000000D+00
        -0.46875000000000D+00 -0.21875000000000D+00 -0.46875000000000D+00
        -0.40625000000000D+00 -0.28125000000000D+00 -0.40625000000000D+00
        -0.34375000000000D+00 -0.34375000000000D+00 -0.34375000000000D+00
        -0.28125000000000D+00 -0.40625000000000D+00 -0.28125000000000D+00
        -0.21875000000000D+00 -0.46875000000000D+00 -0.21875000000000D+00
        -0.15625000000000D+00  0.46875000000000D+00 -0.15625000000000D+00
        -0.93750000000000D-01  0.40625000000000D+00 -0.93750000000000D-01
        -0.31250000000000D-01  0.34375000000000D+00 -0.31250000000000D-01
         0.34375000000000D+00 -0.31250000000000D-01  0.46875000000000D+00
         0.40625000000000D+00 -0.93750000000000D-01 -0.46875000000000D+00
         0.46875000000000D+00 -0.15625000000000D+00 -0.40625000000000D+00
        -0.46875000000000D+00 -0.21875000000000D+00 -0.34375000000000D+00
        -0.40625000000000D+00 -0.28125000000000D+00 -0.28125000000000D+00
        -0.34375000000000D+00 -0.34375000000000D+00 -0.21875000000000D+00
        -0.28125000000000D+00 -0.40625000000000D+00 -0.15625000000000D+00
        -0.21875000000000D+00 -0.46875000000000D+00 -0.93750000000000D-01
        -0.15625000000000D+00  0.46875000000000D+00 -0.31250000000000D-01
         0.34375000000000D+00 -0.31250000000000D-01 -0.40625000000000D+00
         0.40625000000000D+00 -0.93750000000000D-01 -0.34375000000000D+00
         0.46875000000000D+00 -0.15625000000000D+00 -0.28125000000000D+00
        -0.46875000000000D+00 -0.21875000000000D+00 -0.21875000000000D+00
        -0.40625000000000D+00 -0.28125000000000D+00 -0.15625000000000D+00
        -0.34375000000000D+00 -0.34375000000000D+00 -0.93750000000000D-01
        -0.28125000000000D+00 -0.40625000000000D+00 -0.31250000000000D-01
         0.34375000000000D+00 -0.31250000000000D-01 -0.28125000000000D+00
         0.40625000000000D+00 -0.93750000000000D-01 -0.21875000000000D+00
         0.46875000000000D+00 -0.15625000000000D+00 -0.15625000000000D+00
        -0.46875000000000D+00 -0.21875000000000D+00 -0.93750000000000D-01
        -0.40625000000000D+00 -0.28125000000000D+00 -0.31250000000000D-01
         0.34375000000000D+00 -0.31250000000000D-01 -0.15625000000000D+00
         0.40625000000000D+00 -0.93750000000000D-01 -0.93750000000000D-01
         0.46875000000000D+00 -0.15625000000000D+00 -0.31250000000000D-01
         0.34375000000000D+00 -0.31250000000000D-01 -0.31250000000000D-01
        -0.93750000000000D-01  0.28125000000000D+00  0.31250000000000D-01
        -0.31250000000000D-01  0.21875000000000D+00  0.93750000000000D-01
        -0.21875000000000D+00  0.40625000000000D+00  0.31250000000000D-01
        -0.15625000000000D+00  0.34375000000000D+00  0.93750000000000D-01
        -0.93750000000000D-01  0.28125000000000D+00  0.15625000000000D+00
        -0.31250000000000D-01  0.21875000000000D+00  0.21875000000000D+00
        -0.34375000000000D+00 -0.46875000000000D+00  0.31250000000000D-01
        -0.28125000000000D+00  0.46875000000000D+00  0.93750000000000D-01
        -0.21875000000000D+00  0.40625000000000D+00  0.15625000000000D+00
        -0.15625000000000D+00  0.34375000000000D+00  0.21875000000000D+00
        -0.93750000000000D-01  0.28125000000000D+00  0.28125000000000D+00
        -0.31250000000000D-01  0.21875000000000D+00  0.34375000000000D+00
        -0.46875000000000D+00 -0.34375000000000D+00  0.31250000000000D-01
        -0.40625000000000D+00 -0.40625000000000D+00  0.93750000000000D-01
        -0.34375000000000D+00 -0.46875000000000D+00  0.15625000000000D+00
        -0.28125000000000D+00  0.46875000000000D+00  0.21875000000000D+00
        -0.21875000000000D+00  0.40625000000000D+00  0.28125000000000D+00
        -0.15625000000000D+00  0.34375000000000D+00  0.34375000000000D+00
        -0.93750000000000D-01  0.28125000000000D+00  0.40625000000000D+00
        -0.31250000000000D-01  0.21875000000000D+00  0.46875000000000D+00
         0.40625000000000D+00 -0.21875000000000D+00  0.31250000000000D-01
         0.46875000000000D+00 -0.28125000000000D+00  0.93750000000000D-01
        -0.46875000000000D+00 -0.34375000000000D+00  0.15625000000000D+00
        -0.40625000000000D+00 -0.40625000000000D+00  0.21875000000000D+00
        -0.34375000000000D+00 -0.46875000000000D+00  0.28125000000000D+00
        -0.28125000000000D+00  0.46875000000000D+00  0.34375000000000D+00
        -0.21875000000000D+00  0.40625000000000D+00  0.40625000000000D+00
        -0.15625000000000D+00  0.34375000000000D+00  0.46875000000000D+00
        -0.93750000000000D-01  0.28125000000000D+00 -0.46875000000000D+00
        -0.31250000000000D-01  0.21875000000000D+00 -0.40625000000000D+00
         0.28125000000000D+00 -0.93750000000000D-01  0.31250000000000D-01
         0.34375000000000D+00 -0.15625000000000D+00  0.93750000000000D-01
         0.40625000000000D+00 -0.21875000000000D+00  0.15625000000000D+00
         0.46875000000000D+00 -0.28125000000000D+00  0.21875000000000D+00
        -0.46875000000000D+00 -0.34375000000000D+00  0.28125000000000D+00
        -0.40625000000000D+00 -0.40625000000000D+00  0.34375000000000D+00
        -0.34375000000000D+00 -0.46875000000000D+00  0.40625000000000D+00
        -0.28125000000000D+00  0.46875000000000D+00  0.46875000000000D+00
        -0.21875000000000D+00  0.40625000000000D+00 -0.46875000000000D+00
        -0.15625000000000D+00  0.34375000000000D+00 -0.40625000000000D+00
        -0.93750000000000D-01  0.28125000000000D+00 -0.34375000000000D+00
        -0.31250000000000D-01  0.21875000000000D+00 -0.28125000000000D+00
         0.21875000000000D+00 -0.31250000000000D-01  0.93750000000000D-01
         0.28125000000000D+00 -0.93750000000000D-01  0.15625000000000D+00
         0.34375000000000D+00 -0.15625000000000D+00  0.21875000000000D+00
         0.40625000000000D+00 -0.21875000000000D+00  0.28125000000000D+00
         0.46875000000000D+00 -0.28125000000000D+00  0.34375000000000D+00
        -0.46875000000000D+00 -0.34375000000000D+00  0.40625000000000D+00
        -0.40625000000000D+00 -0.40625000000000D+00  0.46875000000000D+00
        -0.34375000000000D+00 -0.46875000000000D+00 -0.46875000000000D+00
        -0.28125000000000D+00  0.46875000000000D+00 -0.40625000000000D+00
        -0.21875000000000D+00  0.40625000000000D+00 -0.34375000000000D+00
        -0.15625000000000D+00  0.34375000000000D+00 -0.28125000000000D+00
        -0.93750000000000D-01  0.28125000000000D+00 -0.21875000000000D+00
        -0.31250000000000D-01  0.21875000000000D+00 -0.15625000000000D+00
         0.21875000000000D+00 -0.31250000000000D-01  0.21875000000000D+00
         0.28125000000000D+00 -0.93750000000000D-01  0.28125000000000D+00
         0.34375000000000D+00 -0.15625000000000D+00  0.34375000000000D+00
         0.40625000000000D+00 -0.21875000000000D+00  0.40625000000000D+00
         0.46875000000000D+00 -0.28125000000000D+00  0.46875000000000D+00
        -0.46875000000000D+00 -0.34375000000000D+00 -0.46875000000000D+00
        -0.40625000000000D+00 -0.40625000000000D+00 -0.40625000000000D+00
        -0.34375000000000D+00 -0.46875000000000D+00 -0.34375000000000D+00
        -0.28125000000000D+00  0.46875000000000D+00 -0.28125000000000D+00
        -0.21875000000000D+00  0.40625000000000D+00 -0.21875000000000D+00
        -0.15625000000000D+00  0.34375000000000D+00 -0.15625000000000D+00
        -0.93750000000000D-01  0.28125000000000D+00 -0.93750000000000D-01
        -0.31250000000000D-01  0.21875000000000D+00 -0.31250000000000D-01
         0.21875000000000D+00 -0.31250000000000D-01  0.34375000000000D+00
         0.28125000000000D+00 -0.93750000000000D-01  0.40625000000000D+00
         0.34375000000000D+00 -0.15625000000000D+00  0.46875000000000D+00
         0.40625000000000D+00 -0.21875000000000D+00 -0.46875000000000D+00
         0.46875000000000D+00 -0.28125000000000D+00 -0.40625000000000D+00
        -0.46875000000000D+00 -0.34375000000000D+00 -0.34375000000000D+00
        -0.40625000000000D+00 -0.40625000000000D+00 -0.28125000000000D+00
        -0.34375000000000D+00 -0.46875000000000D+00 -0.21875000000000D+00
        -0.28125000000000D+00  0.46875000000000D+00 -0.15625000000000D+00
        -0.21875000000000D+00  0.40625000000000D+00 -0.93750000000000D-01
        -0.15625000000000D+00  0.34375000000000D+00 -0.31250000000000D-01
         0.21875000000000D+00 -0.31250000000000D-01  0.46875000000000D+00
         0.28125000000000D+00 -0.93750000000000D-01 -0.46875000000000D+00
         0.34375000000000D+00 -0.15625000000000D+00 -0.40625000000000D+00
         0.40625000000000D+00 -0.21875000000000D+00 -0.34375000000000D+00
         0.46875000000000D+00 -0.28125000000000D+00 -0.28125000000000D+00
        -0.46875000000000D+00 -0.34375000000000D+00 -0.21875000000000D+00
        -0.40625000000000D+00 -0.40625000000000D+00 -0.15625000000000D+00
        -0.34375000000000D+00 -0.46875000000000D+00 -0.93750000000000D-01
        -0.28125000000000D+00  0.46875000000000D+00 -0.31250000000000D-01
         0.21875000000000D+00 -0.31250000000000D-01 -0.40625000000000D+00
         0.28125000000000D+00 -0.93750000000000D-01 -0.34375000000000D+00
         0.34375000000000D+00 -0.15625000000000D+00 -0.28125000000000D+00
         0.40625000000000D+00 -0.21875000000000D+00 -0.21875000000000D+00
         0.46875000000000D+00 -0.28125000000000D+00 -0.15625000000000D+00
        -0.46875000000000D+00 -0.34375000000000D+00 -0.93750000000000D-01
        -0.40625000000000D+00 -0.40625000000000D+00 -0.31250000000000D-01
         0.21875000000000D+00 -0.31250000000000D-01 -0.28125000000000D+00
         0.28125000000000D+00 -0.93750000000000D-01 -0.21875000000000D+00
         0.34375000000000D+00 -0.15625000000000D+00 -0.15625000000000D+00
         0.40625000000000D+00 -0.21875000000000D+00 -0.93750000000000D-01
         0.46875000000000D+00 -0.28125000000000D+00 -0.31250000000000D-01
         0.21875000000000D+00 -0.31250000000000D-01 -0.15625000000000D+00
         0.28125000000000D+00 -0.93750000000000D-01 -0.93750000000000D-01
         0.34375000000000D+00 -0.15625000000000D+00 -0.31250000000000D-01
         0.21875000000000D+00 -0.31250000000000D-01 -0.31250000000000D-01
        -0.93750000000000D-01  0.15625000000000D+00  0.31250000000000D-01
        -0.31250000000000D-01  0.93750000000000D-01  0.93750000000000D-01
        -0.21875000000000D+00  0.28125000000000D+00  0.31250000000000D-01
        -0.15625000000000D+00  0.21875000000000D+00  0.93750000000000D-01
        -0.93750000000000D-01  0.15625000000000D+00  0.15625000000000D+00
        -0.31250000000000D-01  0.93750000000000D-01  0.21875000000000D+00
        -0.34375000000000D+00  0.40625000000000D+00  0.31250000000000D-01
        -0.28125000000000D+00  0.34375000000000D+00  0.93750000000000D-01
        -0.21875000000000D+00  0.28125000000000D+00  0.15625000000000D+00
        -0.15625000000000D+00  0.21875000000000D+00  0.21875000000000D+00
        -0.93750000000000D-01  0.15625000000000D+00  0.28125000000000D+00
        -0.31250000000000D-01  0.93750000000000D-01  0.34375000000000D+00
        -0.46875000000000D+00 -0.46875000000000D+00  0.31250000000000D-01
        -0.40625000000000D+00  0.46875000000000D+00  0.93750000000000D-01
        -0.34375000000000D+00  0.40625000000000D+00  0.15625000000000D+00
        -0.28125000000000D+00  0.34375000000000D+00  0.21875000000000D+00
        -0.21875000000000D+00  0.28125000000000D+00  0.28125000000000D+00
        -0.15625000000000D+00  0.21875000000000D+00  0.34375000000000D+00
        -0.93750000000000D-01  0.15625000000000D+00  0.40625000000000D+00
        -0.31250000000000D-01  0.93750000000000D-01  0.46875000000000D+00
         0.40625000000000D+00 -0.34375000000000D+00  0.31250000000000D-01
         0.46875000000000D+00 -0.40625000000000D+00  0.93750000000000D-01
        -0.46875000000000D+00 -0.46875000000000D+00  0.15625000000000D+00
        -0.40625000000000D+00  0.46875000000000D+00  0.21875000000000D+00
        -0.34375000000000D+00  0.40625000000000D+00  0.28125000000000D+00
        -0.28125000000000D+00  0.34375000000000D+00  0.34375000000000D+00
        -0.21875000000000D+00  0.28125000000000D+00  0.40625000000000D+00
        -0.15625000000000D+00  0.21875000000000D+00  0.46875000000000D+00
        -0.93750000000000D-01  0.15625000000000D+00 -0.46875000000000D+00
        -0.31250000000000D-01  0.93750000000000D-01 -0.40625000000000D+00
         0.28125000000000D+00 -0.21875000000000D+00  0.31250000000000D-01
         0.34375000000000D+00 -0.28125000000000D+00  0.93750000000000D-01
         0.40625000000000D+00 -0.34375000000000D+00  0.15625000000000D+00
         0.46875000000000D+00 -0.40625000000000D+00  0.21875000000000D+00
        -0.46875000000000D+00 -0.46875000000000D+00  0.28125000000000D+00
        -0.40625000000000D+00  0.46875000000000D+00  0.34375000000000D+00
        -0.34375000000000D+00  0.40625000000000D+00  0.40625000000000D+00
        -0.28125000000000D+00  0.34375000000000D+00  0.46875000000000D+00
        -0.21875000000000D+00  0.28125000000000D+00 -0.46875000000000D+00
        -0.15625000000000D+00  0.21875000000000D+00 -0.40625000000000D+00
        -0.93750000000000D-01  0.15625000000000D+00 -0.34375000000000D+00
        -0.31250000000000D-01  0.93750000000000D-01 -0.28125000000000D+00
         0.15625000000000D+00 -0.93750000000000D-01  0.31250000000000D-01
         0.21875000000000D+00 -0.15625000000000D+00  0.93750000000000D-01
         0.28125000000000D+00 -0.21875000000000D+00  0.15625000000000D+00
         0.34375000000000D+00 -0.28125000000000D+00  0.21875000000000D+00
         0.40625000000000D+00 -0.34375000000000D+00  0.28125000000000D+00
         0.46875000000000D+00 -0.40625000000000D+00  0.34375000000000D+00
        -0.46875000000000D+00 -0.46875000000000D+00  0.40625000000000D+00
        -0.40625000000000D+00  0.46875000000000D+00  0.46875000000000D+00
        -0.34375000000000D+00  0.40625000000000D+00 -0.46875000000000D+00
        -0.28125000000000D+00  0.34375000000000D+00 -0.40625000000000D+00
        -0.21875000000000D+00  0.28125000000000D+00 -0.34375000000000D+00
        -0.15625000000000D+00  0.21875000000000D+00 -0.28125000000000D+00
        -0.93750000000000D-01  0.15625000000000D+00 -0.21875000000000D+00
        -0.31250000000000D-01  0.93750000000000D-01 -0.15625000000000D+00
         0.93750000000000D-01 -0.31250000000000D-01  0.93750000000000D-01
         0.15625000000000D+00 -0.93750000000000D-01  0.15625000000000D+00
         0.21875000000000D+00 -0.15625000000000D+00  0.21875000000000D+00
         0.28125000000000D+00 -0.21875000000000D+00  0.28125000000000D+00
         0.34375000000000D+00 -0.28125000000000D+00  0.34375000000000D+00
         0.40625000000000D+00 -0.34375000000000D+00  0.40625000000000D+00
         0.46875000000000D+00 -0.40625000000000D+00  0.46875000000000D+00
        -0.46875000000000D+00 -0.46875000000000D+00 -0.46875000000000D+00
        -0.40625000000000D+00  0.46875000000000D+00 -0.40625000000000D+00
        -0.34375000000000D+00  0.40625000000000D+00 -0.34375000000000D+00
        -0.28125000000000D+00  0.34375000000000D+00 -0.28125000000000D+00
        -0.21875000000000D+00  0.28125000000000D+00 -0.21875000000000D+00
        -0.15625000000000D+00  0.21875000000000D+00 -0.15625000000000D+00
        -0.93750000000000D-01  0.15625000000000D+00 -0.93750000000000D-01
        -0.31250000000000D-01  0.93750000000000D-01 -0.31250000000000D-01
         0.93750000000000D-01 -0.31250000000000D-01  0.21875000000000D+00
         0.15625000000000D+00 -0.93750000000000D-01  0.28125000000000D+00
         0.21875000000000D+00 -0.15625000000000D+00  0.34375000000000D+00
         0.28125000000000D+00 -0.21875000000000D+00  0.40625000000000D+00
         0.34375000000000D+00 -0.28125000000000D+00  0.46875000000000D+00
         0.40625000000000D+00 -0.34375000000000D+00 -0.46875000000000D+00
         0.46875000000000D+00 -0.40625000000000D+00 -0.40625000000000D+00
        -0.46875000000000D+00 -0.46875000000000D+00 -0.34375000000000D+00
        -0.40625000000000D+00  0.46875000000000D+00 -0.28125000000000D+00
        -0.34375000000000D+00  0.40625000000000D+00 -0.21875000000000D+00
        -0.28125000000000D+00  0.34375000000000D+00 -0.15625000000000D+00
        -0.21875000000000D+00  0.28125000000000D+00 -0.93750000000000D-01
        -0.15625000000000D+00  0.21875000000000D+00 -0.31250000000000D-01
         0.93750000000000D-01 -0.31250000000000D-01  0.34375000000000D+00
         0.15625000000000D+00 -0.93750000000000D-01  0.40625000000000D+00
         0.21875000000000D+00 -0.15625000000000D+00  0.46875000000000D+00
         0.28125000000000D+00 -0.21875000000000D+00 -0.46875000000000D+00
         0.34375000000000D+00 -0.28125000000000D+00 -0.40625000000000D+00
         0.40625000000000D+00 -0.34375000000000D+00 -0.34375000000000D+00
         0.46875000000000D+00 -0.40625000000000D+00 -0.28125000000000D+00
        -0.46875000000000D+00 -0.46875000000000D+00 -0.21875000000000D+00
        -0.40625000000000D+00  0.46875000000000D+00 -0.15625000000000D+00
        -0.34375000000000D+00  0.40625000000000D+00 -0.93750000000000D-01
        -0.28125000000000D+00  0.34375000000000D+00 -0.31250000000000D-01
         0.93750000000000D-01 -0.31250000000000D-01  0.46875000000000D+00
         0.15625000000000D+00 -0.93750000000000D-01 -0.46875000000000D+00
         0.21875000000000D+00 -0.15625000000000D+00 -0.40625000000000D+00
         0.28125000000000D+00 -0.21875000000000D+00 -0.34375000000000D+00
         0.34375000000000D+00 -0.28125000000000D+00 -0.28125000000000D+00
         0.40625000000000D+00 -0.34375000000000D+00 -0.21875000000000D+00
         0.46875000000000D+00 -0.40625000000000D+00 -0.15625000000000D+00
        -0.46875000000000D+00 -0.46875000000000D+00 -0.93750000000000D-01
        -0.40625000000000D+00  0.46875000000000D+00 -0.31250000000000D-01
         0.93750000000000D-01 -0.31250000000000D-01 -0.40625000000000D+00
         0.15625000000000D+00 -0.93750000000000D-01 -0.34375000000000D+00
         0.21875000000000D+00 -0.15625000000000D+00 -0.28125000000000D+00
         0.28125000000000D+00 -0.21875000000000D+00 -0.21875000000000D+00
         0.34375000000000D+00 -0.28125000000000D+00 -0.15625000000000D+00
         0.40625000000000D+00 -0.34375000000000D+00 -0.93750000000000D-01
         0.46875000000000D+00 -0.40625000000000D+00 -0.31250000000000D-01
         0.93750000000000D-01 -0.31250000000000D-01 -0.28125000000000D+00
         0.15625000000000D+00 -0.93750000000000D-01 -0.21875000000000D+00
         0.21875000000000D+00 -0.15625000000000D+00 -0.15625000000000D+00
         0.28125000000000D+00 -0.21875000000000D+00 -0.93750000000000D-01
         0.34375000000000D+00 -0.28125000000000D+00 -0.31250000000000D-01
         0.93750000000000D-01 -0.31250000000000D-01 -0.15625000000000D+00
         0.15625000000000D+00 -0.93750000000000D-01 -0.93750000000000D-01
         0.21875000000000D+00 -0.15625000000000D+00 -0.31250000000000D-01
         0.93750000000000D-01 -0.31250000000000D-01 -0.31250000000000D-01
        -0.93750000000000D-01  0.31250000000000D-01  0.31250000000000D-01
        -0.21875000000000D+00  0.15625000000000D+00  0.31250000000000D-01
        -0.15625000000000D+00  0.93750000000000D-01  0.93750000000000D-01
        -0.93750000000000D-01  0.31250000000000D-01  0.15625000000000D+00
        -0.34375000000000D+00  0.28125000000000D+00  0.31250000000000D-01
        -0.28125000000000D+00  0.21875000000000D+00  0.93750000000000D-01
        -0.21875000000000D+00  0.15625000000000D+00  0.15625000000000D+00
        -0.15625000000000D+00  0.93750000000000D-01  0.21875000000000D+00
        -0.93750000000000D-01  0.31250000000000D-01  0.28125000000000D+00
        -0.46875000000000D+00  0.40625000000000D+00  0.31250000000000D-01
        -0.40625000000000D+00  0.34375000000000D+00  0.93750000000000D-01
        -0.34375000000000D+00  0.28125000000000D+00  0.15625000000000D+00
        -0.28125000000000D+00  0.21875000000000D+00  0.21875000000000D+00
        -0.21875000000000D+00  0.15625000000000D+00  0.28125000000000D+00
        -0.15625000000000D+00  0.93750000000000D-01  0.34375000000000D+00
        -0.93750000000000D-01  0.31250000000000D-01  0.40625000000000D+00
         0.40625000000000D+00 -0.46875000000000D+00  0.31250000000000D-01
         0.46875000000000D+00  0.46875000000000D+00  0.93750000000000D-01
        -0.46875000000000D+00  0.40625000000000D+00  0.15625000000000D+00
        -0.40625000000000D+00  0.34375000000000D+00  0.21875000000000D+00
        -0.34375000000000D+00  0.28125000000000D+00  0.28125000000000D+00
        -0.28125000000000D+00  0.21875000000000D+00  0.34375000000000D+00
        -0.21875000000000D+00  0.15625000000000D+00  0.40625000000000D+00
        -0.15625000000000D+00  0.93750000000000D-01  0.46875000000000D+00
        -0.93750000000000D-01  0.31250000000000D-01 -0.46875000000000D+00
         0.28125000000000D+00 -0.34375000000000D+00  0.31250000000000D-01
         0.34375000000000D+00 -0.40625000000000D+00  0.93750000000000D-01
         0.40625000000000D+00 -0.46875000000000D+00  0.15625000000000D+00
         0.46875000000000D+00  0.46875000000000D+00  0.21875000000000D+00
        -0.46875000000000D+00  0.40625000000000D+00  0.28125000000000D+00
        -0.40625000000000D+00  0.34375000000000D+00  0.34375000000000D+00
        -0.34375000000000D+00  0.28125000000000D+00  0.40625000000000D+00
        -0.28125000000000D+00  0.21875000000000D+00  0.46875000000000D+00
        -0.21875000000000D+00  0.15625000000000D+00 -0.46875000000000D+00
        -0.15625000000000D+00  0.93750000000000D-01 -0.40625000000000D+00
        -0.93750000000000D-01  0.31250000000000D-01 -0.34375000000000D+00
         0.15625000000000D+00 -0.21875000000000D+00  0.31250000000000D-01
         0.21875000000000D+00 -0.28125000000000D+00  0.93750000000000D-01
         0.28125000000000D+00 -0.34375000000000D+00  0.15625000000000D+00
         0.34375000000000D+00 -0.40625000000000D+00  0.21875000000000D+00
         0.40625000000000D+00 -0.46875000000000D+00  0.28125000000000D+00
         0.46875000000000D+00  0.46875000000000D+00  0.34375000000000D+00
        -0.46875000000000D+00  0.40625000000000D+00  0.40625000000000D+00
        -0.40625000000000D+00  0.34375000000000D+00  0.46875000000000D+00
        -0.34375000000000D+00  0.28125000000000D+00 -0.46875000000000D+00
        -0.28125000000000D+00  0.21875000000000D+00 -0.40625000000000D+00
        -0.21875000000000D+00  0.15625000000000D+00 -0.34375000000000D+00
        -0.15625000000000D+00  0.93750000000000D-01 -0.28125000000000D+00
        -0.93750000000000D-01  0.31250000000000D-01 -0.21875000000000D+00
         0.31250000000000D-01 -0.93750000000000D-01  0.31250000000000D-01
         0.93750000000000D-01 -0.15625000000000D+00  0.93750000000000D-01
         0.15625000000000D+00 -0.21875000000000D+00  0.15625000000000D+00
         0.21875000000000D+00 -0.28125000000000D+00  0.21875000000000D+00
         0.28125000000000D+00 -0.34375000000000D+00  0.28125000000000D+00
         0.34375000000000D+00 -0.40625000000000D+00  0.34375000000000D+00
         0.40625000000000D+00 -0.46875000000000D+00  0.40625000000000D+00
         0.46875000000000D+00  0.46875000000000D+00  0.46875000000000D+00
        -0.46875000000000D+00  0.40625000000000D+00 -0.46875000000000D+00
        -0.40625000000000D+00  0.34375000000000D+00 -0.40625000000000D+00
        -0.34375000000000D+00  0.28125000000000D+00 -0.34375000000000D+00
        -0.28125000000000D+00  0.21875000000000D+00 -0.28125000000000D+00
        -0.21875000000000D+00  0.15625000000000D+00 -0.21875000000000D+00
        -0.15625000000000D+00  0.93750000000000D-01 -0.15625000000000D+00
        -0.93750000000000D-01  0.31250000000000D-01 -0.93750000000000D-01
         0.31250000000000D-01 -0.93750000000000D-01  0.15625000000000D+00
         0.93750000000000D-01 -0.15625000000000D+00  0.21875000000000D+00
         0.15625000000000D+00 -0.21875000000000D+00  0.28125000000000D+00
         0.21875000000000D+00 -0.28125000000000D+00  0.34375000000000D+00
         0.28125000000000D+00 -0.34375000000000D+00  0.40625000000000D+00
         0.34375000000000D+00 -0.40625000000000D+00  0.46875000000000D+00
         0.40625000000000D+00 -0.46875000000000D+00 -0.46875000000000D+00
         0.46875000000000D+00  0.46875000000000D+00 -0.40625000000000D+00
        -0.46875000000000D+00  0.40625000000000D+00 -0.34375000000000D+00
        -0.40625000000000D+00  0.34375000000000D+00 -0.28125000000000D+00
        -0.34375000000000D+00  0.28125000000000D+00 -0.21875000000000D+00
        -0.28125000000000D+00  0.21875000000000D+00 -0.15625000000000D+00
        -0.21875000000000D+00  0.15625000000000D+00 -0.93750000000000D-01
        -0.15625000000000D+00  0.93750000000000D-01 -0.31250000000000D-01
         0.31250000000000D-01 -0.93750000000000D-01  0.28125000000000D+00
         0.93750000000000D-01 -0.15625000000000D+00  0.34375000000000D+00
         0.15625000000000D+00 -0.21875000000000D+00  0.40625000000000D+00
         0.21875000000000D+00 -0.28125000000000D+00  0.46875000000000D+00
         0.28125000000000D+00 -0.34375000000000D+00 -0.46875000000000D+00
         0.34375000000000D+00 -0.40625000000000D+00 -0.40625000000000D+00
         0.40625000000000D+00 -0.46875000000000D+00 -0.34375000000000D+00
         0.46875000000000D+00  0.46875000000000D+00 -0.28125000000000D+00
        -0.46875000000000D+00  0.40625000000000D+00 -0.21875000000000D+00
        -0.40625000000000D+00  0.34375000000000D+00 -0.15625000000000D+00
        -0.34375000000000D+00  0.28125000000000D+00 -0.93750000000000D-01
        -0.28125000000000D+00  0.21875000000000D+00 -0.31250000000000D-01
         0.31250000000000D-01 -0.93750000000000D-01  0.40625000000000D+00
         0.93750000000000D-01 -0.15625000000000D+00  0.46875000000000D+00
         0.15625000000000D+00 -0.21875000000000D+00 -0.46875000000000D+00
         0.21875000000000D+00 -0.28125000000000D+00 -0.40625000000000D+00
         0.28125000000000D+00 -0.34375000000000D+00 -0.34375000000000D+00
         0.34375000000000D+00 -0.40625000000000D+00 -0.28125000000000D+00
         0.40625000000000D+00 -0.46875000000000D+00 -0.21875000000000D+00
         0.46875000000000D+00  0.46875000000000D+00 -0.15625000000000D+00
        -0.46875000000000D+00  0.40625000000000D+00 -0.93750000000000D-01
        -0.40625000000000D+00  0.34375000000000D+00 -0.31250000000000D-01
         0.31250000000000D-01 -0.93750000000000D-01 -0.46875000000000D+00
         0.93750000000000D-01 -0.15625000000000D+00 -0.40625000000000D+00
         0.15625000000000D+00 -0.21875000000000D+00 -0.34375000000000D+00
         0.21875000000000D+00 -0.28125000000000D+00 -0.28125000000000D+00
         0.28125000000000D+00 -0.34375000000000D+00 -0.21875000000000D+00
         0.34375000000000D+00 -0.40625000000000D+00 -0.15625000000000D+00
         0.40625000000000D+00 -0.46875000000000D+00 -0.93750000000000D-01
         0.46875000000000D+00  0.46875000000000D+00 -0.31250000000000D-01
         0.31250000000000D-01 -0.93750000000000D-01 -0.34375000000000D+00
         0.93750000000000D-01 -0.15625000000000D+00 -0.28125000000000D+00
         0.15625000000000D+00 -0.21875000000000D+00 -0.21875000000000D+00
         0.21875000000000D+00 -0.28125000000000D+00 -0.15625000000000D+00
         0.28125000000000D+00 -0.34375000000000D+00 -0.93750000000000D-01
         0.34375000000000D+00 -0.40625000000000D+00 -0.31250000000000D-01
         0.31250000000000D-01 -0.93750000000000D-01 -0.21875000000000D+00
         0.93750000000000D-01 -0.15625000000000D+00 -0.15625000000000D+00
         0.15625000000000D+00 -0.21875000000000D+00 -0.93750000000000D-01
         0.21875000000000D+00 -0.28125000000000D+00 -0.31250000000000D-01
         0.31250000000000D-01 -0.93750000000000D-01 -0.93750000000000D-01
         0.93750000000000D-01 -0.15625000000000D+00 -0.31250000000000D-01
        -0.21875000000000D+00  0.31250000000000D-01  0.31250000000000D-01
        -0.34375000000000D+00  0.15625000000000D+00  0.31250000000000D-01
        -0.28125000000000D+00  0.93750000000000D-01  0.93750000000000D-01
        -0.21875000000000D+00  0.31250000000000D-01  0.15625000000000D+00
        -0.46875000000000D+00  0.28125000000000D+00  0.31250000000000D-01
        -0.40625000000000D+00  0.21875000000000D+00  0.93750000000000D-01
        -0.34375000000000D+00  0.15625000000000D+00  0.15625000000000D+00
        -0.28125000000000D+00  0.93750000000000D-01  0.21875000000000D+00
        -0.21875000000000D+00  0.31250000000000D-01  0.28125000000000D+00
         0.40625000000000D+00  0.40625000000000D+00  0.31250000000000D-01
         0.46875000000000D+00  0.34375000000000D+00  0.93750000000000D-01
        -0.46875000000000D+00  0.28125000000000D+00  0.15625000000000D+00
        -0.40625000000000D+00  0.21875000000000D+00  0.21875000000000D+00
        -0.34375000000000D+00  0.15625000000000D+00  0.28125000000000D+00
        -0.28125000000000D+00  0.93750000000000D-01  0.34375000000000D+00
        -0.21875000000000D+00  0.31250000000000D-01  0.40625000000000D+00
         0.28125000000000D+00 -0.46875000000000D+00  0.31250000000000D-01
         0.34375000000000D+00  0.46875000000000D+00  0.93750000000000D-01
         0.40625000000000D+00  0.40625000000000D+00  0.15625000000000D+00
         0.46875000000000D+00  0.34375000000000D+00  0.21875000000000D+00
        -0.46875000000000D+00  0.28125000000000D+00  0.28125000000000D+00
        -0.40625000000000D+00  0.21875000000000D+00  0.34375000000000D+00
        -0.34375000000000D+00  0.15625000000000D+00  0.40625000000000D+00
        -0.28125000000000D+00  0.93750000000000D-01  0.46875000000000D+00
        -0.21875000000000D+00  0.31250000000000D-01 -0.46875000000000D+00
         0.15625000000000D+00 -0.34375000000000D+00  0.31250000000000D-01
         0.21875000000000D+00 -0.40625000000000D+00  0.93750000000000D-01
         0.28125000000000D+00 -0.46875000000000D+00  0.15625000000000D+00
         0.34375000000000D+00  0.46875000000000D+00  0.21875000000000D+00
         0.40625000000000D+00  0.40625000000000D+00  0.28125000000000D+00
         0.46875000000000D+00  0.34375000000000D+00  0.34375000000000D+00
        -0.46875000000000D+00  0.28125000000000D+00  0.40625000000000D+00
        -0.40625000000000D+00  0.21875000000000D+00  0.46875000000000D+00
        -0.34375000000000D+00  0.15625000000000D+00 -0.46875000000000D+00
        -0.28125000000000D+00  0.93750000000000D-01 -0.40625000000000D+00
        -0.21875000000000D+00  0.31250000000000D-01 -0.34375000000000D+00
         0.31250000000000D-01 -0.21875000000000D+00  0.31250000000000D-01
         0.93750000000000D-01 -0.28125000000000D+00  0.93750000000000D-01
         0.15625000000000D+00 -0.34375000000000D+00  0.15625000000000D+00
         0.21875000000000D+00 -0.40625000000000D+00  0.21875000000000D+00
         0.28125000000000D+00 -0.46875000000000D+00  0.28125000000000D+00
         0.34375000000000D+00  0.46875000000000D+00  0.34375000000000D+00
         0.40625000000000D+00  0.40625000000000D+00  0.40625000000000D+00
         0.46875000000000D+00  0.34375000000000D+00  0.46875000000000D+00
        -0.46875000000000D+00  0.28125000000000D+00 -0.46875000000000D+00
        -0.40625000000000D+00  0.21875000000000D+00 -0.40625000000000D+00
        -0.34375000000000D+00  0.15625000000000D+00 -0.34375000000000D+00
        -0.28125000000000D+00  0.93750000000000D-01 -0.28125000000000D+00
        -0.21875000000000D+00  0.31250000000000D-01 -0.21875000000000D+00
         0.31250000000000D-01 -0.21875000000000D+00  0.15625000000000D+00
         0.93750000000000D-01 -0.28125000000000D+00  0.21875000000000D+00
         0.15625000000000D+00 -0.34375000000000D+00  0.28125000000000D+00
         0.21875000000000D+00 -0.40625000000000D+00  0.34375000000000D+00
         0.28125000000000D+00 -0.46875000000000D+00  0.40625000000000D+00
         0.34375000000000D+00  0.46875000000000D+00  0.46875000000000D+00
         0.40625000000000D+00  0.40625000000000D+00 -0.46875000000000D+00
         0.46875000000000D+00  0.34375000000000D+00 -0.40625000000000D+00
        -0.46875000000000D+00  0.28125000000000D+00 -0.34375000000000D+00
        -0.40625000000000D+00  0.21875000000000D+00 -0.28125000000000D+00
        -0.34375000000000D+00  0.15625000000000D+00 -0.21875000000000D+00
        -0.28125000000000D+00  0.93750000000000D-01 -0.15625000000000D+00
        -0.21875000000000D+00  0.31250000000000D-01 -0.93750000000000D-01
         0.31250000000000D-01 -0.21875000000000D+00  0.28125000000000D+00
         0.93750000000000D-01 -0.28125000000000D+00  0.34375000000000D+00
         0.15625000000000D+00 -0.34375000000000D+00  0.40625000000000D+00
         0.21875000000000D+00 -0.40625000000000D+00  0.46875000000000D+00
         0.28125000000000D+00 -0.46875000000000D+00 -0.46875000000000D+00
         0.34375000000000D+00  0.46875000000000D+00 -0.40625000000000D+00
         0.40625000000000D+00  0.40625000000000D+00 -0.34375000000000D+00
         0.46875000000000D+00  0.34375000000000D+00 -0.28125000000000D+00
        -0.46875000000000D+00  0.28125000000000D+00 -0.21875000000000D+00
        -0.40625000000000D+00  0.21875000000000D+00 -0.15625000000000D+00
        -0.34375000000000D+00  0.15625000000000D+00 -0.93750000000000D-01
        -0.28125000000000D+00  0.93750000000000D-01 -0.31250000000000D-01
         0.31250000000000D-01 -0.21875000000000D+00  0.40625000000000D+00
         0.93750000000000D-01 -0.28125000000000D+00  0.46875000000000D+00
         0.15625000000000D+00 -0.34375000000000D+00 -0.46875000000000D+00
         0.21875000000000D+00 -0.40625000000000D+00 -0.40625000000000D+00
         0.28125000000000D+00 -0.46875000000000D+00 -0.34375000000000D+00
         0.34375000000000D+00  0.46875000000000D+00 -0.28125000000000D+00
         0.40625000000000D+00  0.40625000000000D+00 -0.21875000000000D+00
         0.46875000000000D+00  0.34375000000000D+00 -0.15625000000000D+00
        -0.46875000000000D+00  0.28125000000000D+00 -0.93750000000000D-01
        -0.40625000000000D+00  0.21875000000000D+00 -0.31250000000000D-01
         0.31250000000000D-01 -0.21875000000000D+00 -0.46875000000000D+00
         0.93750000000000D-01 -0.28125000000000D+00 -0.40625000000000D+00
         0.15625000000000D+00 -0.34375000000000D+00 -0.34375000000000D+00
         0.21875000000000D+00 -0.40625000000000D+00 -0.28125000000000D+00
         0.28125000000000D+00 -0.46875000000000D+00 -0.21875000000000D+00
         0.34375000000000D+00  0.46875000000000D+00 -0.15625000000000D+00
         0.40625000000000D+00  0.40625000000000D+00 -0.93750000000000D-01
         0.46875000000000D+00  0.34375000000000D+00 -0.31250000000000D-01
         0.31250000000000D-01 -0.21875000000000D+00 -0.34375000000000D+00
         0.93750000000000D-01 -0.28125000000000D+00 -0.28125000000000D+00
         0.15625000000000D+00 -0.34375000000000D+00 -0.21875000000000D+00
         0.21875000000000D+00 -0.40625000000000D+00 -0.15625000000000D+00
         0.28125000000000D+00 -0.46875000000000D+00 -0.93750000000000D-01
         0.34375000000000D+00  0.46875000000000D+00 -0.31250000000000D-01
         0.31250000000000D-01 -0.21875000000000D+00 -0.21875000000000D+00
         0.93750000000000D-01 -0.28125000000000D+00 -0.15625000000000D+00
         0.15625000000000D+00 -0.34375000000000D+00 -0.93750000000000D-01
         0.21875000000000D+00 -0.40625000000000D+00 -0.31250000000000D-01
         0.31250000000000D-01 -0.21875000000000D+00 -0.93750000000000D-01
         0.93750000000000D-01 -0.28125000000000D+00 -0.31250000000000D-01
        -0.34375000000000D+00  0.31250000000000D-01  0.31250000000000D-01
        -0.46875000000000D+00  0.15625000000000D+00  0.31250000000000D-01
        -0.40625000000000D+00  0.93750000000000D-01  0.93750000000000D-01
        -0.34375000000000D+00  0.31250000000000D-01  0.15625000000000D+00
         0.40625000000000D+00  0.28125000000000D+00  0.31250000000000D-01
         0.46875000000000D+00  0.21875000000000D+00  0.93750000000000D-01
        -0.46875000000000D+00  0.15625000000000D+00  0.15625000000000D+00
        -0.40625000000000D+00  0.93750000000000D-01  0.21875000000000D+00
        -0.34375000000000D+00  0.31250000000000D-01  0.28125000000000D+00
         0.28125000000000D+00  0.40625000000000D+00  0.31250000000000D-01
         0.34375000000000D+00  0.34375000000000D+00  0.93750000000000D-01
         0.40625000000000D+00  0.28125000000000D+00  0.15625000000000D+00
         0.46875000000000D+00  0.21875000000000D+00  0.21875000000000D+00
        -0.46875000000000D+00  0.15625000000000D+00  0.28125000000000D+00
        -0.40625000000000D+00  0.93750000000000D-01  0.34375000000000D+00
        -0.34375000000000D+00  0.31250000000000D-01  0.40625000000000D+00
         0.15625000000000D+00 -0.46875000000000D+00  0.31250000000000D-01
         0.21875000000000D+00  0.46875000000000D+00  0.93750000000000D-01
         0.28125000000000D+00  0.40625000000000D+00  0.15625000000000D+00
         0.34375000000000D+00  0.34375000000000D+00  0.21875000000000D+00
         0.40625000000000D+00  0.28125000000000D+00  0.28125000000000D+00
         0.46875000000000D+00  0.21875000000000D+00  0.34375000000000D+00
        -0.46875000000000D+00  0.15625000000000D+00  0.40625000000000D+00
        -0.40625000000000D+00  0.93750000000000D-01  0.46875000000000D+00
        -0.34375000000000D+00  0.31250000000000D-01 -0.46875000000000D+00
         0.31250000000000D-01 -0.34375000000000D+00  0.31250000000000D-01
         0.93750000000000D-01 -0.40625000000000D+00  0.93750000000000D-01
         0.15625000000000D+00 -0.46875000000000D+00  0.15625000000000D+00
         0.21875000000000D+00  0.46875000000000D+00  0.21875000000000D+00
         0.28125000000000D+00  0.40625000000000D+00  0.28125000000000D+00
         0.34375000000000D+00  0.34375000000000D+00  0.34375000000000D+00
         0.40625000000000D+00  0.28125000000000D+00  0.40625000000000D+00
         0.46875000000000D+00  0.21875000000000D+00  0.46875000000000D+00
        -0.46875000000000D+00  0.15625000000000D+00 -0.46875000000000D+00
        -0.40625000000000D+00  0.93750000000000D-01 -0.40625000000000D+00
        -0.34375000000000D+00  0.31250000000000D-01 -0.34375000000000D+00
         0.31250000000000D-01 -0.34375000000000D+00  0.15625000000000D+00
         0.93750000000000D-01 -0.40625000000000D+00  0.21875000000000D+00
         0.15625000000000D+00 -0.46875000000000D+00  0.28125000000000D+00
         0.21875000000000D+00  0.46875000000000D+00  0.34375000000000D+00
         0.28125000000000D+00  0.40625000000000D+00  0.40625000000000D+00
         0.34375000000000D+00  0.34375000000000D+00  0.46875000000000D+00
         0.40625000000000D+00  0.28125000000000D+00 -0.46875000000000D+00
         0.46875000000000D+00  0.21875000000000D+00 -0.40625000000000D+00
        -0.46875000000000D+00  0.15625000000000D+00 -0.34375000000000D+00
        -0.40625000000000D+00  0.93750000000000D-01 -0.28125000000000D+00
        -0.34375000000000D+00  0.31250000000000D-01 -0.21875000000000D+00
         0.31250000000000D-01 -0.34375000000000D+00  0.28125000000000D+00
         0.93750000000000D-01 -0.40625000000000D+00  0.34375000000000D+00
         0.15625000000000D+00 -0.46875000000000D+00  0.40625000000000D+00
         0.21875000000000D+00  0.46875000000000D+00  0.46875000000000D+00
         0.28125000000000D+00  0.40625000000000D+00 -0.46875000000000D+00
         0.34375000000000D+00  0.34375000000000D+00 -0.40625000000000D+00
         0.40625000000000D+00  0.28125000000000D+00 -0.34375000000000D+00
         0.46875000000000D+00  0.21875000000000D+00 -0.28125000000000D+00
        -0.46875000000000D+00  0.15625000000000D+00 -0.21875000000000D+00
        -0.40625000000000D+00  0.93750000000000D-01 -0.15625000000000D+00
        -0.34375000000000D+00  0.31250000000000D-01 -0.93750000000000D-01
         0.31250000000000D-01 -0.34375000000000D+00  0.40625000000000D+00
         0.93750000000000D-01 -0.40625000000000D+00  0.46875000000000D+00
         0.15625000000000D+00 -0.46875000000000D+00 -0.46875000000000D+00
         0.21875000000000D+00  0.46875000000000D+00 -0.40625000000000D+00
         0.28125000000000D+00  0.40625000000000D+00 -0.34375000000000D+00
         0.34375000000000D+00  0.34375000000000D+00 -0.28125000000000D+00
         0.40625000000000D+00  0.28125000000000D+00 -0.21875000000000D+00
         0.46875000000000D+00  0.21875000000000D+00 -0.15625000000000D+00
        -0.46875000000000D+00  0.15625000000000D+00 -0.93750000000000D-01
        -0.40625000000000D+00  0.93750000000000D-01 -0.31250000000000D-01
         0.31250000000000D-01 -0.34375000000000D+00 -0.46875000000000D+00
         0.93750000000000D-01 -0.40625000000000D+00 -0.40625000000000D+00
         0.15625000000000D+00 -0.46875000000000D+00 -0.34375000000000D+00
         0.21875000000000D+00  0.46875000000000D+00 -0.28125000000000D+00
         0.28125000000000D+00  0.40625000000000D+00 -0.21875000000000D+00
         0.34375000000000D+00  0.34375000000000D+00 -0.15625000000000D+00
         0.40625000000000D+00  0.28125000000000D+00 -0.93750000000000D-01
         0.46875000000000D+00  0.21875000000000D+00 -0.31250000000000D-01
         0.31250000000000D-01 -0.34375000000000D+00 -0.34375000000000D+00
         0.93750000000000D-01 -0.40625000000000D+00 -0.28125000000000D+00
         0.15625000000000D+00 -0.46875000000000D+00 -0.21875000000000D+00
         0.21875000000000D+00  0.46875000000000D+00 -0.15625000000000D+00
         0.28125000000000D+00  0.40625000000000D+00 -0.93750000000000D-01
         0.34375000000000D+00  0.34375000000000D+00 -0.31250000000000D-01
         0.31250000000000D-01 -0.34375000000000D+00 -0.21875000000000D+00
         0.93750000000000D-01 -0.40625000000000D+00 -0.15625000000000D+00
         0.15625000000000D+00 -0.46875000000000D+00 -0.93750000000000D-01
         0.21875000000000D+00  0.46875000000000D+00 -0.31250000000000D-01
         0.31250000000000D-01 -0.34375000000000D+00 -0.93750000000000D-01
         0.93750000000000D-01 -0.40625000000000D+00 -0.31250000000000D-01
        -0.46875000000000D+00  0.31250000000000D-01  0.31250000000000D-01
         0.40625000000000D+00  0.15625000000000D+00  0.31250000000000D-01
         0.46875000000000D+00  0.93750000000000D-01  0.93750000000000D-01
        -0.46875000000000D+00  0.31250000000000D-01  0.15625000000000D+00
         0.28125000000000D+00  0.28125000000000D+00  0.31250000000000D-01
         0.34375000000000D+00  0.21875000000000D+00  0.93750000000000D-01
         0.40625000000000D+00  0.15625000000000D+00  0.15625000000000D+00
         0.46875000000000D+00  0.93750000000000D-01  0.21875000000000D+00
        -0.46875000000000D+00  0.31250000000000D-01  0.28125000000000D+00
         0.15625000000000D+00  0.40625000000000D+00  0.31250000000000D-01
         0.21875000000000D+00  0.34375000000000D+00  0.93750000000000D-01
         0.28125000000000D+00  0.28125000000000D+00  0.15625000000000D+00
         0.34375000000000D+00  0.21875000000000D+00  0.21875000000000D+00
         0.40625000000000D+00  0.15625000000000D+00  0.28125000000000D+00
         0.46875000000000D+00  0.93750000000000D-01  0.34375000000000D+00
        -0.46875000000000D+00  0.31250000000000D-01  0.40625000000000D+00
         0.31250000000000D-01 -0.46875000000000D+00  0.31250000000000D-01
         0.93750000000000D-01  0.46875000000000D+00  0.93750000000000D-01
         0.15625000000000D+00  0.40625000000000D+00  0.15625000000000D+00
         0.21875000000000D+00  0.34375000000000D+00  0.21875000000000D+00
         0.28125000000000D+00  0.28125000000000D+00  0.28125000000000D+00
         0.34375000000000D+00  0.21875000000000D+00  0.34375000000000D+00
         0.40625000000000D+00  0.15625000000000D+00  0.40625000000000D+00
         0.46875000000000D+00  0.93750000000000D-01  0.46875000000000D+00
        -0.46875000000000D+00  0.31250000000000D-01 -0.46875000000000D+00
         0.31250000000000D-01 -0.46875000000000D+00  0.15625000000000D+00
         0.93750000000000D-01  0.46875000000000D+00  0.21875000000000D+00
         0.15625000000000D+00  0.40625000000000D+00  0.28125000000000D+00
         0.21875000000000D+00  0.34375000000000D+00  0.34375000000000D+00
         0.28125000000000D+00  0.28125000000000D+00  0.40625000000000D+00
         0.34375000000000D+00  0.21875000000000D+00  0.46875000000000D+00
         0.40625000000000D+00  0.15625000000000D+00 -0.46875000000000D+00
         0.46875000000000D+00  0.93750000000000D-01 -0.40625000000000D+00
        -0.46875000000000D+00  0.31250000000000D-01 -0.34375000000000D+00
         0.31250000000000D-01 -0.46875000000000D+00  0.28125000000000D+00
         0.93750000000000D-01  0.46875000000000D+00  0.34375000000000D+00
         0.15625000000000D+00  0.40625000000000D+00  0.40625000000000D+00
         0.21875000000000D+00  0.34375000000000D+00  0.46875000000000D+00
         0.28125000000000D+00  0.28125000000000D+00 -0.46875000000000D+00
         0.34375000000000D+00  0.21875000000000D+00 -0.40625000000000D+00
         0.40625000000000D+00  0.15625000000000D+00 -0.34375000000000D+00
         0.46875000000000D+00  0.93750000000000D-01 -0.28125000000000D+00
        -0.46875000000000D+00  0.31250000000000D-01 -0.21875000000000D+00
         0.31250000000000D-01 -0.46875000000000D+00  0.40625000000000D+00
         0.93750000000000D-01  0.46875000000000D+00  0.46875000000000D+00
         0.15625000000000D+00  0.40625000000000D+00 -0.46875000000000D+00
         0.21875000000000D+00  0.34375000000000D+00 -0.40625000000000D+00
         0.28125000000000D+00  0.28125000000000D+00 -0.34375000000000D+00
         0.34375000000000D+00  0.21875000000000D+00 -0.28125000000000D+00
         0.40625000000000D+00  0.15625000000000D+00 -0.21875000000000D+00
         0.46875000000000D+00  0.93750000000000D-01 -0.15625000000000D+00
        -0.46875000000000D+00  0.31250000000000D-01 -0.93750000000000D-01
         0.31250000000000D-01 -0.46875000000000D+00 -0.46875000000000D+00
         0.93750000000000D-01  0.46875000000000D+00 -0.40625000000000D+00
         0.15625000000000D+00  0.40625000000000D+00 -0.34375000000000D+00
         0.21875000000000D+00  0.34375000000000D+00 -0.28125000000000D+00
         0.28125000000000D+00  0.28125000000000D+00 -0.21875000000000D+00
         0.34375000000000D+00  0.21875000000000D+00 -0.15625000000000D+00
         0.40625000000000D+00  0.15625000000000D+00 -0.93750000000000D-01
         0.46875000000000D+00  0.93750000000000D-01 -0.31250000000000D-01
         0.31250000000000D-01 -0.46875000000000D+00 -0.34375000000000D+00
         0.93750000000000D-01  0.46875000000000D+00 -0.28125000000000D+00
         0.15625000000000D+00  0.40625000000000D+00 -0.21875000000000D+00
         0.21875000000000D+00  0.34375000000000D+00 -0.15625000000000D+00
         0.28125000000000D+00  0.28125000000000D+00 -0.93750000000000D-01
         0.34375000000000D+00  0.21875000000000D+00 -0.31250000000000D-01
         0.31250000000000D-01 -0.46875000000000D+00 -0.21875000000000D+00
         0.93750000000000D-01  0.46875000000000D+00 -0.15625000000000D+00
         0.15625000000000D+00  0.40625000000000D+00 -0.93750000000000D-01
         0.21875000000000D+00  0.34375000000000D+00 -0.31250000000000D-01
         0.31250000000000D-01 -0.46875000000000D+00 -0.93750000000000D-01
         0.93750000000000D-01  0.46875000000000D+00 -0.31250000000000D-01
         0.40625000000000D+00  0.31250000000000D-01  0.31250000000000D-01
         0.28125000000000D+00  0.15625000000000D+00  0.31250000000000D-01
         0.34375000000000D+00  0.93750000000000D-01  0.93750000000000D-01
         0.40625000000000D+00  0.31250000000000D-01  0.15625000000000D+00
         0.15625000000000D+00  0.28125000000000D+00  0.31250000000000D-01
         0.21875000000000D+00  0.21875000000000D+00  0.93750000000000D-01
         0.28125000000000D+00  0.15625000000000D+00  0.15625000000000D+00
         0.34375000000000D+00  0.93750000000000D-01  0.21875000000000D+00
         0.40625000000000D+00  0.31250000000000D-01  0.28125000000000D+00
         0.31250000000000D-01  0.40625000000000D+00  0.31250000000000D-01
         0.93750000000000D-01  0.34375000000000D+00  0.93750000000000D-01
         0.15625000000000D+00  0.28125000000000D+00  0.15625000000000D+00
         0.21875000000000D+00  0.21875000000000D+00  0.21875000000000D+00
         0.28125000000000D+00  0.15625000000000D+00  0.28125000000000D+00
         0.34375000000000D+00  0.93750000000000D-01  0.34375000000000D+00
         0.40625000000000D+00  0.31250000000000D-01  0.40625000000000D+00
         0.31250000000000D-01  0.40625000000000D+00  0.15625000000000D+00
         0.93750000000000D-01  0.34375000000000D+00  0.21875000000000D+00
         0.15625000000000D+00  0.28125000000000D+00  0.28125000000000D+00
         0.21875000000000D+00  0.21875000000000D+00  0.34375000000000D+00
         0.28125000000000D+00  0.15625000000000D+00  0.40625000000000D+00
         0.34375000000000D+00  0.93750000000000D-01  0.46875000000000D+00
         0.40625000000000D+00  0.31250000000000D-01 -0.46875000000000D+00
         0.31250000000000D-01  0.40625000000000D+00  0.28125000000000D+00
         0.93750000000000D-01  0.34375000000000D+00  0.34375000000000D+00
         0.15625000000000D+00  0.28125000000000D+00  0.40625000000000D+00
         0.21875000000000D+00  0.21875000000000D+00  0.46875000000000D+00
         0.28125000000000D+00  0.15625000000000D+00 -0.46875000000000D+00
         0.34375000000000D+00  0.93750000000000D-01 -0.40625000000000D+00
         0.40625000000000D+00  0.31250000000000D-01 -0.34375000000000D+00
         0.31250000000000D-01  0.40625000000000D+00  0.40625000000000D+00
         0.93750000000000D-01  0.34375000000000D+00  0.46875000000000D+00
         0.15625000000000D+00  0.28125000000000D+00 -0.46875000000000D+00
         0.21875000000000D+00  0.21875000000000D+00 -0.40625000000000D+00
         0.28125000000000D+00  0.15625000000000D+00 -0.34375000000000D+00
         0.34375000000000D+00  0.93750000000000D-01 -0.28125000000000D+00
         0.40625000000000D+00  0.31250000000000D-01 -0.21875000000000D+00
         0.31250000000000D-01  0.40625000000000D+00 -0.46875000000000D+00
         0.93750000000000D-01  0.34375000000000D+00 -0.40625000000000D+00
         0.15625000000000D+00  0.28125000000000D+00 -0.34375000000000D+00
         0.21875000000000D+00  0.21875000000000D+00 -0.28125000000000D+00
         0.28125000000000D+00  0.15625000000000D+00 -0.21875000000000D+00
         0.34375000000000D+00  0.93750000000000D-01 -0.15625000000000D+00
         0.40625000000000D+00  0.31250000000000D-01 -0.93750000000000D-01
         0.31250000000000D-01  0.40625000000000D+00 -0.34375000000000D+00
         0.93750000000000D-01  0.34375000000000D+00 -0.28125000000000D+00
         0.15625000000000D+00  0.28125000000000D+00 -0.21875000000000D+00
         0.21875000000000D+00  0.21875000000000D+00 -0.15625000000000D+00
         0.28125000000000D+00  0.15625000000000D+00 -0.93750000000000D-01
         0.34375000000000D+00  0.93750000000000D-01 -0.31250000000000D-01
         0.31250000000000D-01  0.40625000000000D+00 -0.21875000000000D+00
         0.93750000000000D-01  0.34375000000000D+00 -0.15625000000000D+00
         0.15625000000000D+00  0.28125000000000D+00 -0.93750000000000D-01
         0.21875000000000D+00  0.21875000000000D+00 -0.31250000000000D-01
         0.31250000000000D-01  0.40625000000000D+00 -0.93750000000000D-01
         0.93750000000000D-01  0.34375000000000D+00 -0.31250000000000D-01
         0.28125000000000D+00  0.31250000000000D-01  0.31250000000000D-01
         0.15625000000000D+00  0.15625000000000D+00  0.31250000000000D-01
         0.21875000000000D+00  0.93750000000000D-01  0.93750000000000D-01
         0.28125000000000D+00  0.31250000000000D-01  0.15625000000000D+00
         0.31250000000000D-01  0.28125000000000D+00  0.31250000000000D-01
         0.93750000000000D-01  0.21875000000000D+00  0.93750000000000D-01
         0.15625000000000D+00  0.15625000000000D+00  0.15625000000000D+00
         0.21875000000000D+00  0.93750000000000D-01  0.21875000000000D+00
         0.28125000000000D+00  0.31250000000000D-01  0.28125000000000D+00
         0.31250000000000D-01  0.28125000000000D+00  0.15625000000000D+00
         0.93750000000000D-01  0.21875000000000D+00  0.21875000000000D+00
         0.15625000000000D+00  0.15625000000000D+00  0.28125000000000D+00
         0.21875000000000D+00  0.93750000000000D-01  0.34375000000000D+00
         0.28125000000000D+00  0.31250000000000D-01  0.40625000000000D+00
         0.31250000000000D-01  0.28125000000000D+00  0.28125000000000D+00
         0.93750000000000D-01  0.21875000000000D+00  0.34375000000000D+00
         0.15625000000000D+00  0.15625000000000D+00  0.40625000000000D+00
         0.21875000000000D+00  0.93750000000000D-01  0.46875000000000D+00
         0.28125000000000D+00  0.31250000000000D-01 -0.46875000000000D+00
         0.31250000000000D-01  0.28125000000000D+00  0.40625000000000D+00
         0.93750000000000D-01  0.21875000000000D+00  0.46875000000000D+00
         0.15625000000000D+00  0.15625000000000D+00 -0.46875000000000D+00
         0.21875000000000D+00  0.93750000000000D-01 -0.40625000000000D+00
         0.28125000000000D+00  0.31250000000000D-01 -0.34375000000000D+00
         0.31250000000000D-01  0.28125000000000D+00 -0.46875000000000D+00
         0.93750000000000D-01  0.21875000000000D+00 -0.40625000000000D+00
         0.15625000000000D+00  0.15625000000000D+00 -0.34375000000000D+00
         0.21875000000000D+00  0.93750000000000D-01 -0.28125000000000D+00
         0.28125000000000D+00  0.31250000000000D-01 -0.21875000000000D+00
         0.31250000000000D-01  0.28125000000000D+00 -0.34375000000000D+00
         0.93750000000000D-01  0.21875000000000D+00 -0.28125000000000D+00
         0.15625000000000D+00  0.15625000000000D+00 -0.21875000000000D+00
         0.21875000000000D+00  0.93750000000000D-01 -0.15625000000000D+00
         0.28125000000000D+00  0.31250000000000D-01 -0.93750000000000D-01
         0.31250000000000D-01  0.28125000000000D+00 -0.21875000000000D+00
         0.93750000000000D-01  0.21875000000000D+00 -0.15625000000000D+00
         0.15625000000000D+00  0.15625000000000D+00 -0.93750000000000D-01
         0.21875000000000D+00  0.93750000000000D-01 -0.31250000000000D-01
         0.31250000000000D-01  0.28125000000000D+00 -0.93750000000000D-01
         0.93750000000000D-01  0.21875000000000D+00 -0.31250000000000D-01
         0.15625000000000D+00  0.31250000000000D-01  0.31250000000000D-01
         0.31250000000000D-01  0.15625000000000D+00  0.31250000000000D-01
         0.93750000000000D-01  0.93750000000000D-01  0.93750000000000D-01
         0.15625000000000D+00  0.31250000000000D-01  0.15625000000000D+00
         0.31250000000000D-01  0.15625000000000D+00  0.15625000000000D+00
         0.93750000000000D-01  0.93750000000000D-01  0.21875000000000D+00
         0.15625000000000D+00  0.31250000000000D-01  0.28125000000000D+00
         0.31250000000000D-01  0.15625000000000D+00  0.28125000000000D+00
         0.93750000000000D-01  0.93750000000000D-01  0.34375000000000D+00
         0.15625000000000D+00  0.31250000000000D-01  0.40625000000000D+00
         0.31250000000000D-01  0.15625000000000D+00  0.40625000000000D+00
         0.93750000000000D-01  0.93750000000000D-01  0.46875000000000D+00
         0.15625000000000D+00  0.31250000000000D-01 -0.46875000000000D+00
         0.31250000000000D-01  0.15625000000000D+00 -0.46875000000000D+00
         0.93750000000000D-01  0.93750000000000D-01 -0.40625000000000D+00
         0.15625000000000D+00  0.31250000000000D-01 -0.34375000000000D+00
         0.31250000000000D-01  0.15625000000000D+00 -0.34375000000000D+00
         0.93750000000000D-01  0.93750000000000D-01 -0.28125000000000D+00
         0.15625000000000D+00  0.31250000000000D-01 -0.21875000000000D+00
         0.31250000000000D-01  0.15625000000000D+00 -0.21875000000000D+00
         0.93750000000000D-01  0.93750000000000D-01 -0.15625000000000D+00
         0.15625000000000D+00  0.31250000000000D-01 -0.93750000000000D-01
         0.31250000000000D-01  0.15625000000000D+00 -0.93750000000000D-01
         0.93750000000000D-01  0.93750000000000D-01 -0.31250000000000D-01
         0.31250000000000D-01  0.31250000000000D-01  0.31250000000000D-01
         0.31250000000000D-01  0.31250000000000D-01  0.15625000000000D+00
         0.31250000000000D-01  0.31250000000000D-01  0.28125000000000D+00
         0.31250000000000D-01  0.31250000000000D-01  0.40625000000000D+00
         0.31250000000000D-01  0.31250000000000D-01 -0.46875000000000D+00
         0.31250000000000D-01  0.31250000000000D-01 -0.34375000000000D+00
         0.31250000000000D-01  0.31250000000000D-01 -0.21875000000000D+00
         0.31250000000000D-01  0.31250000000000D-01 -0.93750000000000D-01
 kptnrm  0.10000000000000D+01
  ngfft        20   20   20
    occ  0.20000000000000D+01  0.19791857659439D-01  0.19791857585217D-01
        -0.26984932829346D-01  0.00000000000000D+00  0.00000000000000D+00
  rprim -0.50000000000000D+00  0.50000000000000D+00  0.50000000000000D+00
         0.50000000000000D+00 -0.50000000000000D+00  0.50000000000000D+00
         0.50000000000000D+00  0.50000000000000D+00 -0.50000000000000D+00
  sciss  0.00000000000000D+00
 symrel         1    0    0    0    1    0    0    0    1
               -1    0    0    0   -1    0    0    0   -1
               -1   -1   -1    0    0    1    0    1    0
                1    1    1    0    0   -1    0   -1    0
                0    1    0    1    0    0   -1   -1   -1
                0   -1    0   -1    0    0    1    1    1
                0    0    1   -1   -1   -1    1    0    0
                0    0   -1    1    1    1   -1    0    0
                0    1    0    1    0    0    0    0    1
                0   -1    0   -1    0    0    0    0   -1
               -1   -1   -1    0    0    1    1    0    0
                1    1    1    0    0   -1   -1    0    0
                1    0    0    0    1    0   -1   -1   -1
               -1    0    0    0   -1    0    1    1    1
                0    0    1   -1   -1   -1    0    1    0
                0    0   -1    1    1    1    0   -1    0
               -1   -1   -1    1    0    0    0    0    1
                1    1    1   -1    0    0    0    0   -1
                0    1    0    0    0    1    1    0    0
                0   -1    0    0    0   -1   -1    0    0
                1    0    0   -1   -1   -1    0    1    0
               -1    0    0    1    1    1    0   -1    0
                0    0    1    0    1    0   -1   -1   -1
                0    0   -1    0   -1    0    1    1    1
                1    0    0   -1   -1   -1    0    0    1
               -1    0    0    1    1    1    0    0   -1
                0    1    0    0    0    1   -1   -1   -1
                0   -1    0    0    0   -1    1    1    1
               -1   -1   -1    1    0    0    0    1    0
                1    1    1   -1    0    0    0   -1    0
                0    0    1    0    1    0    1    0    0
                0    0   -1    0   -1    0   -1    0    0
                0    1    0   -1   -1   -1    0    0    1
                0   -1    0    1    1    1    0    0   -1
                1    0    0    0    0    1   -1   -1   -1
               -1    0    0    0    0   -1    1    1    1
               -1   -1   -1    0    1    0    1    0    0
                1    1    1    0   -1    0   -1    0    0
                0    0    1    1    0    0    0    1    0
                0    0   -1   -1    0    0    0   -1    0
               -1   -1   -1    0    1    0    0    0    1
                1    1    1    0   -1    0    0    0   -1
                1    0    0    0    0    1    0    1    0
               -1    0    0    0    0   -1    0   -1    0
                0    1    0   -1   -1   -1    1    0    0
                0   -1    0    1    1    1   -1    0    0
                0    0    1    1    0    0   -1   -1   -1
                0    0   -1   -1    0    0    1    1    1
   xred  0.00000000000000D+00  0.00000000000000D+00  0.00000000000000D+00
  tnons  0.00000000000000D+00  0.00000000000000D+00  0.00000000000000D+00
         0.00000000000000D+00  0.00000000000000D+00  0.00000000000000D+00
         0.00000000000000D+00  0.00000000000000D+00  0.00000000000000D+00
         0.00000000000000D+00  0.00000000000000D+00  0.00000000000000D+00
         0.00000000000000D+00  0.00000000000000D+00  0.00000000000000D+00
[...]
  
 2rd derivatives (non-stat.)  - # elements :       9
 qpt -0.25000000D+00  0.25000000D+00  0.25000000D+00   1.0
   1   1   1   1  0.23759968417500D+01 -0.75518601089894D-22
   2   1   1   1 -0.14604499651482D+01 -0.28255111153375D-06
   3   1   1   1 -0.14604499660866D+01 -0.28255111258588D-06
   1   1   2   1 -0.14604499651482D+01  0.28255111153375D-06
   2   1   2   1  0.23759968425095D+01 -0.34159570462243D-22
   3   1   2   1  0.54490308872593D+00  0.56510222411964D-06
   1   1   3   1 -0.14604499660866D+01  0.28255111258588D-06
   2   1   3   1  0.54490308872593D+00  0.56510222411964D-06
   3   1   3   1  0.23759968432674D+01 -0.11687763171755D-21
  
 2rd derivatives (non-stat.)  - # elements :       9
 qpt  0.25000000D+00  0.00000000D+00  0.00000000D+00   1.0
   1   1   1   1  0.17168134488813D+01  0.13074475320797D-21
   2   1   1   1 -0.21424651878672D+00 -0.48202252500869D-11
   3   1   1   1 -0.21424651972498D+00 -0.48216541803091D-11
   1   1   2   1 -0.21424421718604D+00 -0.43273349188689D-07
   2   1   2   1  0.83544539300772D+00  0.66660238893059D-23
   3   1   2   1 -0.40695216023025D+00  0.11433849629262D-09
   1   1   3   1 -0.21424651972498D+00  0.48216541803017D-11
   2   1   3   1 -0.40695216023025D+00 -0.11433849629263D-09
   3   1   3   1  0.83544539376510D+00  0.66660238893060D-23
  
 2rd derivatives (non-stat.)  - # elements :       9
 qpt  0.25000000D+00  0.25000000D+00  0.00000000D+00   1.0
   1   1   1   1  0.23527466868258D+01  0.70673202179248D-22
   2   1   1   1 -0.82023464153451D-01 -0.71404795425064D-06
   3   1   1   1 -0.50752214831905D+00  0.62612273840157D-06
   1   1   2   1 -0.82023464153451D-01  0.71404795425064D-06
   2   1   2   1  0.23527466875847D+01  0.13825057719455D-21
   3   1   2   1 -0.50752066234708D+00  0.30818813910357D-06
   1   1   3   1 -0.50752066224959D+00 -0.30818814095912D-06
   2   1   3   1 -0.50752066234708D+00 -0.30818813910357D-06
   3   1   3   1  0.18118643092241D+01  0.29116028864396D-22
  
 2rd derivatives (non-stat.)  - # elements :       9
 qpt  0.50000000D+00  0.50000000D+00  0.25000000D+00   1.0
   1   1   1   1  0.42339710077518D+01  0.28412411755338D-22
   2   1   1   1 -0.14105298123729D+01 -0.14035534487297D-07
   3   1   1   1 -0.14117207010440D+01  0.29525720507956D-06
   1   1   2   1 -0.14105298123729D+01  0.14035534487297D-07
   2   1   2   1  0.42339710085121D+01  0.28412411755338D-22
   3   1   2   1 -0.14117207316928D+01 -0.78018943202369D-09
   1   1   3   1 -0.14117207315958D+01  0.78019005242456D-09
   2   1   3   1 -0.14117207316928D+01  0.78018943202370D-09
   3   1   3   1  0.29265571565288D+01 -0.33627771621849D-22
  
 2rd derivatives (non-stat.)  - # elements :       9
 qpt -0.12500000D+00  0.12500000D+00  0.12500000D+00   1.0
   1   1   1   1  0.63175780459687D+00  0.20819194875956D-22
   2   1   1   1 -0.56945166549227D+00 -0.45607230102024D-06
   3   1   1   1 -0.56945166643098D+00 -0.45607230347678D-06
   1   1   2   1 -0.56945166549227D+00  0.45607230102024D-06
   2   1   2   1  0.63175780535619D+00 -0.20541473187405D-22
   3   1   2   1  0.50714552656834D+00  0.91214460449701D-06
   1   1   3   1 -0.56945166643098D+00  0.45607230347678D-06
   2   1   3   1  0.50714552656834D+00  0.91214460449701D-06
   3   1   3   1  0.63175780611471D+00 -0.72240261471969D-22
  
 2rd derivatives (non-stat.)  - # elements :       9
 qpt -0.37500000D+00  0.37500000D+00  0.37500000D+00   1.0
   1   1   1   1  0.43939183090355D+01 -0.30719714780842D-22
   2   1   1   1 -0.14173625262576D+01 -0.78990687156506D-07
   3   1   1   1 -0.14173625271966D+01 -0.78990695343750D-07
   1   1   2   1 -0.14173625262576D+01  0.78990687156506D-07
   2   1   2   1  0.43939183097943D+01  0.31320468596345D-22
   3   1   2   1 -0.15591932563403D+01  0.15798138250026D-06
   1   1   3   1 -0.14173625271966D+01  0.78990695343750D-07
   2   1   3   1 -0.15591932563403D+01  0.15798138250026D-06
   3   1   3   1  0.43939183105542D+01  0.41660226253257D-22
  
 2rd derivatives (non-stat.)  - # elements :       9
 qpt -0.12500000D+00  0.12500000D+00  0.37500000D+00   1.0
   1   1   1   1  0.22611209198175D+01  0.30785394884532D-22
   2   1   1   1 -0.64275926357001D+00  0.13858696902440D-07
   3   1   1   1 -0.12912104072838D+01 -0.60215020534171D-06
   1   1   2   1 -0.64275926357001D+00 -0.13858696902440D-07
   2   1   2   1  0.22611209205772D+01 -0.93290059562713D-22
   3   1   2   1 -0.32714836157052D+00  0.64250453120495D-06
   1   1   3   1 -0.12912127186558D+01  0.64246595592116D-06
   2   1   3   1 -0.32714836157052D+00 -0.64250453120495D-06
   3   1   3   1  0.29517062842276D+01 -0.41589633842439D-22
  
 2rd derivatives (non-stat.)  - # elements :       9
 qpt  0.12500000D+00  0.12500000D+00  0.12500000D+00   1.0
   1   1   1   1  0.10318374036304D+01  0.10107517006416D-22
   2   1   1   1  0.96855375865346D-02 -0.65244151537448D-06
   3   1   1   1  0.96855366480781D-02 -0.65244151871129D-06
   1   1   2   1  0.96855375865346D-02  0.65244151537448D-06
   2   1   2   1  0.10318374043891D+01 -0.31251513621236D-22
   3   1   2   1  0.96855365508191D-02 -0.65244151871129D-06
   1   1   3   1  0.96855366480781D-02  0.65244151871129D-06
   2   1   3   1  0.96855365508191D-02  0.65244151871129D-06
   3   1   3   1  0.10318374051490D+01 -0.23224065049724D-24
  
 2rd derivatives (non-stat.)  - # elements :       9
 qpt -0.12500000D+00  0.37500000D+00  0.37500000D+00   1.0
   1   1   1   1  0.19107549503331D+01  0.87645602013673D-23
   2   1   1   1 -0.63691831831864D+00 -0.13847279546630D-06
   3   1   1   1 -0.63691831925695D+00 -0.13847279419449D-06
   1   1   2   1 -0.63691787204959D+00 -0.34080358500752D-06
   2   1   2   1  0.36429365258646D+01  0.50123590829019D-22
   3   1   2   1 -0.15030090466576D+01  0.19082013228979D-06
   1   1   3   1 -0.63691831925695D+00  0.13847279419449D-06
   2   1   3   1 -0.15030090466576D+01 -0.19082013228979D-06
   3   1   3   1  0.36429365266230D+01  0.81142863799758D-22
  
 2rd derivatives (non-stat.)  - # elements :       9
 qpt  0.12500000D+00  0.12500000D+00  0.37500000D+00   1.0
   1   1   1   1  0.24186514726784D+01  0.40317269448209D-22
   2   1   1   1 -0.79849886473986D+00 -0.26513770675144D-08
   3   1   1   1 -0.81007581141125D+00 -0.69895430155862D-06
   1   1   2   1 -0.79849886473986D+00  0.26513770675143D-08
   2   1   2   1  0.24186514734379D+01  0.92979964774706D-23
   3   1   2   1 -0.81007567795265D+00  0.88651074426956D-07
   1   1   3   1 -0.81007567785571D+00 -0.88651073793637D-07
   2   1   3   1 -0.81007567795265D+00 -0.88651074426956D-07
   3   1   3   1  0.33517316960432D+01  0.40315632012500D-22
  
 2rd derivatives (non-stat.)  - # elements :       9
 qpt  0.12500000D+00  0.00000000D+00  0.00000000D+00   1.0
   1   1   1   1  0.51294274829229D+00  0.18933396343550D-22
   2   1   1   1 -0.16122202335595D-01 -0.25056769609333D-11
   3   1   1   1 -0.16122203274051D-01 -0.25070332189844D-11
   1   1   2   1 -0.16120449668705D-01  0.12000928586893D-06
   2   1   2   1  0.14066181166731D+00  0.61374947082998D-23
   3   1   2   1 -0.10841738593217D+00  0.58007834296976D-11
   1   1   3   1 -0.16122203274051D-01  0.25070332190012D-11
   2   1   3   1 -0.10841738593217D+00 -0.58007834296808D-11
   3   1   3   1  0.14066181242617D+00  0.61374947082998D-23
  
 2rd derivatives (non-stat.)  - # elements :       9
 qpt  0.00000000D+00  0.12500000D+00  0.12500000D+00   1.0
   1   1   1   1  0.53974434421013D+00  0.15121620449522D-22
   2   1   1   1 -0.23786402387469D+00 -0.49521694220785D-06
   3   1   1   1 -0.23786402481329D+00 -0.49521694019740D-06
   1   1   2   1 -0.23786383113944D+00 -0.62565320563481D-07
   2   1   2   1  0.71431617109374D+00 -0.80392342441031D-22
   3   1   2   1  0.37622690524086D+00  0.52566195287189D-06
   1   1   3   1 -0.23786402481329D+00  0.49521694019740D-06
   2   1   3   1  0.37622690524086D+00 -0.52566195287189D-06
   3   1   3   1  0.71431617185317D+00 -0.80392342441031D-22
  
 2rd derivatives (non-stat.)  - # elements :       9
 qpt -0.12500000D+00  0.25000000D+00  0.12500000D+00   1.0
   1   1   1   1  0.12354286918273D+01  0.25916182344689D-23
   2   1   1   1 -0.10049101939836D+01 -0.22854967096165D-06
   3   1   1   1 -0.80093045970600D+00 -0.24107752312469D-09
   1   1   2   1 -0.10049095443023D+01  0.22914279586503D-06
   2   1   2   1  0.18128330227298D+01  0.36068672619254D-22
   3   1   2   1  0.57041114624147D+00 -0.22913974315056D-06
   1   1   3   1 -0.80093045970600D+00  0.24107752312465D-09
   2   1   3   1  0.57041114624147D+00  0.22913974315056D-06
   3   1   3   1  0.12354286933457D+01 -0.38767412393183D-22
  
 2rd derivatives (non-stat.)  - # elements :       9
 qpt -0.12500000D+00  0.25000000D+00  0.25000000D+00   1.0
   1   1   1   1  0.20942335659012D+01  0.16502830104906D-23
   2   1   1   1 -0.10211465037457D+01  0.40703274511257D-06
   3   1   1   1 -0.10211465046840D+01  0.40703274397207D-06
   1   1   2   1 -0.10211478253687D+01  0.14750432979425D-06
   2   1   2   1  0.22975332938247D+01 -0.26909571110493D-22
   3   1   2   1  0.27714003295176D+00 -0.86033826307669D-07
   1   1   3   1 -0.10211465046840D+01 -0.40703274397207D-06
   2   1   3   1  0.27714003295176D+00  0.86033826307669D-07
   3   1   3   1  0.22975332945833D+01  0.10750727842937D-21
  
 2rd derivatives (non-stat.)  - # elements :       9
 qpt -0.25000000D+00  0.37500000D+00  0.25000000D+00   1.0
   1   1   1   1  0.30728227846062D+01  0.80293938610956D-22
   2   1   1   1 -0.14475300629996D+01 -0.26705427691896D-06
   3   1   1   1 -0.96528040263789D+00  0.28320648197012D-08
   1   1   2   1 -0.14475307263802D+01 -0.37743634782563D-06
   2   1   2   1  0.35526953842312D+01 -0.30983976765329D-22
   3   1   2   1 -0.66001131124813D+00  0.37731959075861D-06
   1   1   3   1 -0.96528040263789D+00 -0.28320648197013D-08
   2   1   3   1 -0.66001131124813D+00 -0.37731959075861D-06
   3   1   3   1  0.30728227861223D+01 -0.13192540935612D-21
  
 2rd derivatives (non-stat.)  - # elements :       9
 qpt -0.25000000D+00  0.37500000D+00  0.37500000D+00   1.0
   1   1   1   1  0.31075341870580D+01 -0.69679453777179D-22
   2   1   1   1 -0.87080441575549D+00 -0.26963777883483D-06
   3   1   1   1 -0.87080441669355D+00 -0.26963777880501D-06
   1   1   2   1 -0.87080513094449D+00  0.51647054822562D-07
   2   1   2   1  0.40637647585864D+01  0.67554878577323D-22
   3   1   2   1 -0.16380570584631D+01  0.12450985463680D-06
   1   1   3   1 -0.87080441669355D+00  0.26963777880501D-06
   2   1   3   1 -0.16380570584631D+01 -0.12450985463679D-06
   3   1   3   1  0.40637647593469D+01 -0.62661444414423D-22
  
 2rd derivatives (non-stat.)  - # elements :       9
 qpt -0.37500000D+00  0.50000000D+00  0.37500000D+00   1.0
   1   1   1   1  0.45845362426790D+01 -0.70456612193988D-22
   2   1   1   1 -0.16817330228303D+01 -0.13900142653310D-06
   3   1   1   1 -0.12210691256780D+01  0.78541887924475D-10
   1   1   2   1 -0.16817341365832D+01  0.12063662798194D-06
   2   1   2   1  0.51090029376262D+01  0.45184306669029D-23
   3   1   2   1 -0.16817351213613D+01 -0.12384514519979D-06
   1   1   3   1 -0.12210691256780D+01 -0.78541887924488D-10
   2   1   3   1 -0.16817351213613D+01  0.12384514519979D-06
   3   1   3   1  0.45845362441945D+01  0.99853968554639D-24
  
 2rd derivatives (non-stat.)  - # elements :       9
 qpt  0.12500000D+00  0.00000000D+00  0.25000000D+00   1.0
   1   1   1   1  0.14509150581665D+01  0.51466547634067D-22
   2   1   1   1 -0.52422559300288D+00 -0.59473862396505D-06
   3   1   1   1  0.24986200519851D+00 -0.45466186088185D-06
   1   1   2   1 -0.52422572689309D+00  0.59520988055123D-06
   2   1   2   1  0.14673128791901D+01 -0.23369537378369D-22
   3   1   2   1 -0.46316411226201D+00  0.66860881696088D-06
   1   1   3   1  0.24986037926536D+00  0.78529592609401D-06
   2   1   3   1 -0.46316390414151D+00 -0.68815681108989D-06
   3   1   3   1  0.16499409752943D+01  0.53924329048113D-22
  
 2rd derivatives (non-stat.)  - # elements :       9
 qpt  0.00000000D+00  0.00000000D+00  0.37500000D+00   1.0
   1   1   1   1  0.20000084521736D+01 -0.14913940818153D-22
   2   1   1   1 -0.45557019626435D+00 -0.31889214571166D-09
   3   1   1   1 -0.77221927056289D+00 -0.22195585330009D-05
   1   1   2   1 -0.45557019626435D+00  0.31889214571168D-09
   2   1   2   1  0.20000084529322D+01 -0.14913940818153D-22
   3   1   2   1 -0.77221899641444D+00 -0.19211765538371D-10
   1   1   3   1 -0.77221899631684D+00  0.19212173359627D-10
   2   1   3   1 -0.77221899641444D+00  0.19211765538426D-10
   3   1   3   1  0.27076100601703D+01 -0.74493067909874D-22
  
 2rd derivatives (non-stat.)  - # elements :       9
 qpt  0.00000000D+00  0.12500000D+00  0.37500000D+00   1.0
   1   1   1   1  0.21987010364393D+01 -0.35643744794356D-23
   2   1   1   1 -0.44429766317359D+00  0.21303194730648D-06
   3   1   1   1 -0.75268705798598D+00 -0.11928286439724D-05
   1   1   2   1 -0.44429780348798D+00 -0.26489637887041D-06
   2   1   2   1  0.24538447728238D+01 -0.31986908187673D-22
   3   1   2   1 -0.61363691473639D+00  0.16210051822557D-05
   1   1   3   1 -0.75268692351503D+00  0.11811530208767D-05
   2   1   3   1 -0.61363700457909D+00 -0.12227270435199D-05
   3   1   3   1  0.29099777472985D+01  0.23935007509947D-22
  
 2rd derivatives (non-stat.)  - # elements :       9
 qpt -0.12500000D+00  0.25000000D+00  0.37500000D+00   1.0
   1   1   1   1  0.22108074927407D+01  0.88489742995160D-22
   2   1   1   1 -0.36084483879705D+00 -0.17659106634410D-06
   3   1   1   1 -0.92319159105395D+00 -0.77125230420742D-06
   1   1   2   1 -0.36084543093159D+00  0.73839850417722D-07
   2   1   2   1  0.27827787601448D+01  0.39591279800543D-22
   3   1   2   1 -0.82472261234861D+00  0.36292667246502D-06
   1   1   3   1 -0.92319171660614D+00  0.68996968543424D-06
   2   1   3   1 -0.82472278452474D+00 -0.37588900580175D-06
   3   1   3   1  0.32536232136013D+01 -0.77869531234301D-22
  
 2rd derivatives (non-stat.)  - # elements :       9
 qpt -0.12500000D+00  0.12500000D+00  0.50000000D+00   1.0
   1   1   1   1  0.26520928696367D+01 -0.49551443722949D-23
   2   1   1   1 -0.16502728582867D+00 -0.59396190190499D-10
   3   1   1   1 -0.12435327554991D+01 -0.81356264245956D-06
   1   1   2   1 -0.16502728582867D+00  0.59396190190533D-10
   2   1   2   1  0.26520928703953D+01 -0.20822477079657D-22
   3   1   2   1 -0.12435335152007D+01  0.81074080637739D-06
   1   1   3   1 -0.12435327361812D+01  0.81067351765544D-06
   2   1   3   1 -0.12435335152007D+01 -0.81074080637739D-06
   3   1   3   1  0.37721854728945D+01  0.49925163494181D-23
  
 2rd derivatives (non-stat.)  - # elements :       9
 qpt  0.25000000D+00  0.12500000D+00  0.12500000D+00   1.0
   1   1   1   1  0.20811679559282D+01  0.13596915828123D-21
   2   1   1   1 -0.16602293749727D+00 -0.43732882852895D-06
   3   1   1   1 -0.16602293843565D+00 -0.43732882658586D-06
   1   1   2   1 -0.16602231385369D+00  0.94784540119197D-06
   2   1   2   1  0.19857541595812D+01  0.45332536809251D-22
   3   1   2   1 -0.53321386609966D+00  0.11485195688486D-06
   1   1   3   1 -0.16602293843565D+00  0.43732882658586D-06
   2   1   3   1 -0.53321386609966D+00 -0.11485195688486D-06
   3   1   3   1  0.19857541603400D+01  0.70374137384586D-22
  
 2rd derivatives (non-stat.)  - # elements :       9
 qpt  0.12500000D+00  0.25000000D+00  0.25000000D+00   1.0
   1   1   1   1  0.22850891188757D+01 -0.40516630710397D-22
   2   1   1   1 -0.70660154781288D+00 -0.33288640186155D-06
   3   1   1   1 -0.70660154875151D+00 -0.33288639049952D-06
   1   1   2   1 -0.70660127788040D+00  0.44728180580332D-06
   2   1   2   1  0.28407989150156D+01 -0.13111830564427D-21
   3   1   2   1 -0.79355785551974D+00  0.13509215191957D-06
   1   1   3   1 -0.70660154875151D+00  0.33288639049952D-06
   2   1   3   1 -0.79355785551974D+00 -0.13509215191957D-06
   3   1   3   1  0.28407989157729D+01 -0.17380971418234D-22
  
 2rd derivatives (non-stat.)  - # elements :       9
 qpt  0.00000000D+00  0.37500000D+00  0.25000000D+00   1.0
   1   1   1   1  0.17861199255930D+01  0.13372402132308D-22
   2   1   1   1 -0.62884228429539D+00  0.11284807492239D-06
   3   1   1   1 -0.52843467288201D+00 -0.39451803487391D-06
   1   1   2   1 -0.62884256717092D+00 -0.11249744506957D-06
   2   1   2   1  0.34010352578903D+01  0.57486306134889D-24
   3   1   2   1 -0.11516057123235D+01  0.24508515756031D-07
   1   1   3   1 -0.52843285852532D+00  0.62287418304776D-06
   2   1   3   1 -0.11516059205399D+01  0.12600562749818D-06
   3   1   3   1  0.28316441799126D+01  0.44391675103047D-22

 List of bloks and their characteristics 
  
 2rd derivatives (non-stat.)  - # elements :      21
 qpt  0.00000000D+00  0.00000000D+00  0.00000000D+00   1.0
  
 2rd derivatives (non-stat.)  - # elements :       9
 qpt -0.50000000D+00  0.50000000D+00  0.50000000D+00   1.0
  
 2rd derivatives (non-stat.)  - # elements :       9
 qpt  0.25000000D+00  0.25000000D+00  0.25000000D+00   1.0
  
 2rd derivatives (non-stat.)  - # elements :       9
 qpt  0.50000000D+00  0.00000000D+00  0.00000000D+00   1.0
  
 2rd derivatives (non-stat.)  - # elements :       9
 qpt -0.25000000D+00  0.25000000D+00  0.25000000D+00   1.0
  
 2rd derivatives (non-stat.)  - # elements :       9
 qpt  0.25000000D+00  0.00000000D+00  0.00000000D+00   1.0
  
 2rd derivatives (non-stat.)  - # elements :       9
 qpt  0.25000000D+00  0.25000000D+00  0.00000000D+00   1.0
  
 2rd derivatives (non-stat.)  - # elements :       9
 qpt  0.50000000D+00  0.50000000D+00  0.25000000D+00   1.0
  
 2rd derivatives (non-stat.)  - # elements :       9
 qpt -0.12500000D+00  0.12500000D+00  0.12500000D+00   1.0
  
 2rd derivatives (non-stat.)  - # elements :       9
 qpt -0.37500000D+00  0.37500000D+00  0.37500000D+00   1.0
  
 2rd derivatives (non-stat.)  - # elements :       9
 qpt -0.12500000D+00  0.12500000D+00  0.37500000D+00   1.0
  
 2rd derivatives (non-stat.)  - # elements :       9
 qpt  0.12500000D+00  0.12500000D+00  0.12500000D+00   1.0
  
 2rd derivatives (non-stat.)  - # elements :       9
 qpt -0.12500000D+00  0.37500000D+00  0.37500000D+00   1.0
  
 2rd derivatives (non-stat.)  - # elements :       9
 qpt  0.12500000D+00  0.12500000D+00  0.37500000D+00   1.0
  
 2rd derivatives (non-stat.)  - # elements :       9
 qpt  0.12500000D+00  0.00000000D+00  0.00000000D+00   1.0
  
 2rd derivatives (non-stat.)  - # elements :       9
 qpt  0.00000000D+00  0.12500000D+00  0.12500000D+00   1.0
  
 2rd derivatives (non-stat.)  - # elements :       9
 qpt -0.12500000D+00  0.25000000D+00  0.12500000D+00   1.0
  
 2rd derivatives (non-stat.)  - # elements :       9
 qpt -0.12500000D+00  0.25000000D+00  0.25000000D+00   1.0
  
 2rd derivatives (non-stat.)  - # elements :       9
 qpt -0.25000000D+00  0.37500000D+00  0.25000000D+00   1.0
  
 2rd derivatives (non-stat.)  - # elements :       9
 qpt -0.25000000D+00  0.37500000D+00  0.37500000D+00   1.0
  
 2rd derivatives (non-stat.)  - # elements :       9
 qpt -0.37500000D+00  0.50000000D+00  0.37500000D+00   1.0
  
 2rd derivatives (non-stat.)  - # elements :       9
 qpt  0.12500000D+00  0.00000000D+00  0.25000000D+00   1.0
  
 2rd derivatives (non-stat.)  - # elements :       9
 qpt  0.00000000D+00  0.00000000D+00  0.37500000D+00   1.0
  
 2rd derivatives (non-stat.)  - # elements :       9
 qpt  0.00000000D+00  0.12500000D+00  0.37500000D+00   1.0
  
 2rd derivatives (non-stat.)  - # elements :       9
 qpt -0.12500000D+00  0.25000000D+00  0.37500000D+00   1.0
  
 2rd derivatives (non-stat.)  - # elements :       9
 qpt -0.12500000D+00  0.12500000D+00  0.50000000D+00   1.0
  
 2rd derivatives (non-stat.)  - # elements :       9
 qpt  0.25000000D+00  0.12500000D+00  0.12500000D+00   1.0
  
 2rd derivatives (non-stat.)  - # elements :       9
 qpt  0.12500000D+00  0.25000000D+00  0.25000000D+00   1.0
  
 2rd derivatives (non-stat.)  - # elements :       9
 qpt  0.00000000D+00  0.37500000D+00  0.25000000D+00   1.0
