
.Version 5.6.3  of ABINIT 
.(sequential version, prepared for a x86_64_linux_gcc4.3 computer) 

.Copyright (C) 1998-2008 ABINIT group . 
 ABINIT comes with ABSOLUTELY NO WARRANTY.
 It is free software, and you are welcome to redistribute it
 under certain conditions (GNU General Public License,
 see ~abinit/COPYING or http://www.gnu.org/copyleft/gpl.txt).

 ABINIT is a project of the Universite Catholique de Louvain,
 Corning Inc. and other collaborators, see ~abinit/doc/developers/contributors.txt .
 Please read ~abinit/doc/users/acknowledgments.html for suggested
 acknowledgments of the ABINIT effort.
 For more information, see http://www.abinit.org .

.Starting date : Thu  6 Nov 2008.
  
- input  file    -> /home/gonze/ABINIT/ABINITv5.6.3/test_gcc43/5.6.3-private/tests/v5/Input/t09.in
- output file    -> t09.out
- root for input  files -> t09i
- root for output files -> t09o


 Symmetries : space group P1 (#  1); Bravais aP (primitive triclinic)
================================================================================
 Values of the parameters that define the memory need of the present run
   intxc =         0  ionmov =         0    iscf =        17 xclevel =         1
  lmnmax =         8   lnmax =         4   mband =        10  mffmem =         1
P  mgfft =        24   mkmem =         1 mpssoang=         2     mpw =       619
  mqgrid =      3001   natom =         4    nfft =     13824    nkpt =         1
  nloalg =         4  nspden =         1 nspinor =         1  nsppol =         1
    nsym =         1  n1xccc =         1  ntypat =         1  occopt =         3
 PAW method is used; the additional fine FFT grid is defined by:
   mgfftf=        48    nfftf =    110592
================================================================================
P This job should need less than                      46.268 Mbytes of memory.
  Rough estimation (10% accuracy) of disk space for files :
  WF disk file :      0.096 Mbytes ; DEN or POT disk file :      0.846 Mbytes.
================================================================================

 -outvars: echo values of preprocessed input variables --------
     acell    7.3879600000E+00  7.3879600000E+00  7.3879600000E+00 Bohr
       amu    2.69800000E+01
      ecut    1.00000000E+01 Hartree
    enunit         2
    istwfk      1
       ixc         7
P    mkmem         1
     natom         4
     nband        10
     ngfft        24      24      24
   ngfftdg        48      48      48
      nkpt         1
     nstep         5
      nsym         1
    ntypat         1
       occ    2.000000  2.000000  2.000000  2.000000  2.000000  2.000000
              0.000000  0.000000  0.000000  0.000000
    occopt         3
 pawecutdg    5.00000000E+01 Hartree
  pawmixdg         1
    prtden         0
  prtnabla         1
   spgroup         1
    toldfe    1.00000000E-05 Hartree
    tsmear    3.67490000E-03 Hartree
     typat    1  1  1  1
    useylm         1
    xangst    0.0000000000E+00  0.0000000000E+00  0.0000000000E+00
              1.9547700250E+00  1.9547700250E+00  0.0000000000E+00
              1.9547700250E+00  0.0000000000E+00  1.9547700250E+00
              0.0000000000E+00  1.9547700250E+00  1.9547700250E+00
     xcart    0.0000000000E+00  0.0000000000E+00  0.0000000000E+00
              3.6939800000E+00  3.6939800000E+00  0.0000000000E+00
              3.6939800000E+00  0.0000000000E+00  3.6939800000E+00
              0.0000000000E+00  3.6939800000E+00  3.6939800000E+00
      xred    0.0000000000E+00  0.0000000000E+00  0.0000000000E+00
              5.0000000000E-01  5.0000000000E-01  0.0000000000E+00
              5.0000000000E-01  0.0000000000E+00  5.0000000000E-01
              0.0000000000E+00  5.0000000000E-01  5.0000000000E-01
     znucl     13.00000

================================================================================

 chkinp: Checking input parameters for consistency.

================================================================================
== DATASET  1 ==================================================================

 Real(R)+Recip(G) space primitive vectors, cartesian coordinates (Bohr,Bohr^-1):
 R(1)=  7.3879600  0.0000000  0.0000000  G(1)=  0.1353554  0.0000000  0.0000000
 R(2)=  0.0000000  7.3879600  0.0000000  G(2)=  0.0000000  0.1353554  0.0000000
 R(3)=  0.0000000  0.0000000  7.3879600  G(3)=  0.0000000  0.0000000  0.1353554
 Unit cell volume ucvol=  4.0324929E+02 bohr^3
 Angles (23,13,12)=  9.00000000E+01  9.00000000E+01  9.00000000E+01 degrees

 Coarse grid specifications (used for wave-functions):

 getcut: wavevector=  0.0000  0.0000  0.0000  ngfft=  24  24  24
         ecut(hartree)=     10.000   => boxcut(ratio)=   2.28203

 getcut : COMMENT -
  Note that boxcut > 2.2 ; recall that boxcut=Gcut(box)/Gcut(sphere) = 2
  is sufficient for exact treatment of convolution.
  Such a large boxcut is a waste : you could raise ecut
  e.g. ecut=   13.019166 Hartrees makes boxcut=2


 Fine grid specifications (used for densities):

 getcut: wavevector=  0.0000  0.0000  0.0000  ngfft=  48  48  48
         ecut(hartree)=     50.000   => boxcut(ratio)=   2.04111

--- Pseudopotential description ------------------------------------------------
- pspini: atom type   1  psp file is /home/gonze/ABINIT/ABINITv5.6.3/test_gcc43/5.6.3-private/tests/Psps_for_tests/13al.paw
- pspatm: opening atomic psp file    /home/gonze/ABINIT/ABINITv5.6.3/test_gcc43/5.6.3-private/tests/Psps_for_tests/13al.paw
 Paw atomic data for element Al - Generated by AtomPAW (N. Holzwarth) + AtomPAW2Abinit v3.0.6
  13.00000   3.00000  20061004                znucl, zion, pspdat
    7    7    1    0       690   0.00000      pspcod,pspxc,lmax,lloc,mmax,r2well
 Pseudopotential format is: paw3
 basis_size (lnmax)=  4 (lmn_size=  8), orbitals=   0   0   1   1
 Spheres core radius: rc_sph= 2.31261116
 3 radial meshes are used:
  - mesh 1: r(i)=AA*[exp(BB*(i-1))-1], size= 690 , AA= 0.87923E-03 BB= 0.11430E-01
  - mesh 2: r(i)=AA*[exp(BB*(i-1))-1], size= 752 , AA= 0.87923E-03 BB= 0.11430E-01
  - mesh 3: r(i)=AA*[exp(BB*(i-1))-1], size= 818 , AA= 0.87923E-03 BB= 0.11430E-01
 Shapefunction is SIN type: shapef(r)=[sin(pi*r/rshp)/(pi*r/rshp)]**2
 Radius for shape functions = sphere core radius
 Radial grid used for partial waves is grid 1
 Radial grid used for projectors is grid 1
 Radial grid used for (t)core density is grid 2
 Radial grid used for Vloc is grid 3

 psp7in: WARNING -
  Atomic data could produce inaccurate results:
    Wavefunctions and pseudo-wavefunctions should
    be given on a radial mesh larger than the PAW
    spheres (at least 2 additional points) !
  Action: check your pseudopotential file.
 pspatm: atomic psp has been read  and splines computed

   9.77338386E+02                                ecore*ucvol(ha*bohr**3)
--------------------------------------------------------------------------------

P newkpt: treating     10 bands with npw=     619 for ikpt=   1

 setup2: Arith. and geom. avg. npw (full set) are     619.000     619.000

================================================================================

     iter   Etot(hartree)      deltaE(h)  residm     nres2    diffor    maxfor
 ETOT  1  -8.1547015447534    -8.155E+00 3.342E-02 4.782E+00 1.050E-02 1.050E-02
 ETOT  2  -8.1901388343001    -3.544E-02 4.526E-04 2.437E+00 1.205E-02 1.549E-03
 ETOT  3  -8.1854422818376     4.697E-03 1.126E-05 4.465E-01 1.014E-03 5.351E-04
 ETOT  4  -8.1848947114549     5.476E-04 1.965E-06 4.391E-02 7.744E-04 2.393E-04
 ETOT  5  -8.1847941970646     1.005E-04 1.010E-07 1.977E-03 1.627E-04 7.665E-05

 Cartesian components of stress tensor (hartree/bohr^3)
  sigma(1 1)= -1.06173462E-03  sigma(3 2)=  3.10701789E-08
  sigma(2 2)= -1.05125751E-03  sigma(3 1)=  2.56311487E-07
  sigma(3 3)= -1.05996652E-03  sigma(2 1)= -1.11103298E-07


 scprqt:  WARNING -
  nstep=    5 was not enough SCF cycles to converge;
  maximum energy difference=  1.005E-04 exceeds toldfe=  1.000E-05


 PAW TEST:
 ==== Compensation charge inside spheres ============
 The following values must be close to each other ...
 Compensation charge over spherical meshes =     -0.376413007599969
 Compensation charge over fine fft grid    =     -0.379572931568742

 ==== Results concerning PAW augmentation regions ====

 Total pseudopotential strength Dij (hartree):
 Atom #  1
   0.08367  -0.26503  -0.00000  -0.00000  -0.00000   0.00000   0.00001   0.00001
  -0.26503   0.14868   0.00000   0.00001   0.00001  -0.00002  -0.00004  -0.00003
  -0.00000   0.00000   0.00116  -0.00000  -0.00000  -0.00404   0.00000   0.00000
  -0.00000   0.00001  -0.00000   0.00116  -0.00000   0.00000  -0.00404   0.00000
  -0.00000   0.00001  -0.00000  -0.00000   0.00116   0.00000   0.00000  -0.00404
   0.00000  -0.00002  -0.00404   0.00000   0.00000   0.57102  -0.00001  -0.00000
   0.00001  -0.00004   0.00000  -0.00404   0.00000  -0.00001   0.57101  -0.00001
   0.00001  -0.00003   0.00000   0.00000  -0.00404  -0.00000  -0.00001   0.57103
 Atom #  4
   0.08367  -0.26505   0.00000   0.00000  -0.00000  -0.00001  -0.00000   0.00001
  -0.26505   0.14899  -0.00001  -0.00001   0.00001   0.00003   0.00002  -0.00003
   0.00000  -0.00001   0.00114   0.00000  -0.00000  -0.00398  -0.00000   0.00000
   0.00000  -0.00001   0.00000   0.00114  -0.00000  -0.00000  -0.00398   0.00000
  -0.00000   0.00001  -0.00000  -0.00000   0.00114   0.00000   0.00000  -0.00398
  -0.00001   0.00003  -0.00398  -0.00000   0.00000   0.57076   0.00001  -0.00000
  -0.00000   0.00002  -0.00000  -0.00398   0.00000   0.00001   0.57078  -0.00001
   0.00001  -0.00003   0.00000   0.00000  -0.00398  -0.00000  -0.00001   0.57078

 Total pseudopotential strength Dij (eV):
 Atom #  1
   2.27691  -7.21180  -0.00002  -0.00010  -0.00006   0.00013   0.00034   0.00032
  -7.21180   4.04574   0.00011   0.00027   0.00014  -0.00059  -0.00108  -0.00090
  -0.00002   0.00011   0.03149  -0.00003  -0.00001  -0.11000   0.00009   0.00002
  -0.00010   0.00027  -0.00003   0.03144  -0.00002   0.00009  -0.10989   0.00007
  -0.00006   0.00014  -0.00001  -0.00002   0.03151   0.00002   0.00007  -0.11003
   0.00013  -0.00059  -0.11000   0.00009   0.00002  15.53836  -0.00038  -0.00007
   0.00034  -0.00108   0.00009  -0.10989   0.00007  -0.00038  15.53796  -0.00028
   0.00032  -0.00090   0.00002   0.00007  -0.11003  -0.00007  -0.00028  15.53840
 Atom #  4
   2.27665  -7.21237   0.00006   0.00004  -0.00005  -0.00024  -0.00010   0.00026
  -7.21237   4.05413  -0.00017  -0.00017   0.00019   0.00078   0.00052  -0.00093
   0.00006  -0.00017   0.03100   0.00002  -0.00001  -0.10828  -0.00005   0.00003
   0.00004  -0.00017   0.00002   0.03102  -0.00003  -0.00005  -0.10838   0.00009
  -0.00005   0.00019  -0.00001  -0.00003   0.03102   0.00003   0.00009  -0.10839
  -0.00024   0.00078  -0.10828  -0.00005   0.00003  15.53116   0.00020  -0.00012
  -0.00010   0.00052  -0.00005  -0.10838   0.00009   0.00020  15.53158  -0.00036
   0.00026  -0.00093   0.00003   0.00009  -0.10839  -0.00012  -0.00036  15.53166

 Augmentation waves occupancies Rhoij:
 Atom #  1
   1.46114   0.01816   0.00006   0.00013   0.00040  -0.00000  -0.00001  -0.00001
   0.01816   0.00148  -0.00000   0.00000  -0.00001  -0.00000  -0.00000  -0.00000
   0.00006  -0.00000   1.04150   0.00002  -0.00003   0.01782  -0.00000  -0.00000
   0.00013   0.00000   0.00002   1.04171   0.00008  -0.00000   0.01782  -0.00000
   0.00040  -0.00001  -0.00003   0.00008   1.04215   0.00000  -0.00000   0.01783
  -0.00000  -0.00000   0.01782  -0.00000   0.00000   0.00030  -0.00000   0.00000
  -0.00001  -0.00000  -0.00000   0.01782  -0.00000  -0.00000   0.00030  -0.00000
  -0.00001  -0.00000  -0.00000  -0.00000   0.01783   0.00000  -0.00000   0.00031
 Atom #  4
   1.47700   0.01791  -0.00011   0.00021   0.00013   0.00001   0.00000  -0.00001
   0.01791   0.00148   0.00000  -0.00000  -0.00001   0.00000   0.00000  -0.00000
  -0.00011   0.00000   1.04209   0.00001  -0.00003   0.01777   0.00000  -0.00000
   0.00021  -0.00000   0.00001   1.04184   0.00008   0.00000   0.01777  -0.00000
   0.00013  -0.00001  -0.00003   0.00008   1.04190  -0.00000  -0.00000   0.01777
   0.00001   0.00000   0.01777   0.00000  -0.00000   0.00030   0.00000  -0.00000
   0.00000   0.00000   0.00000   0.01777  -0.00000   0.00000   0.00030  -0.00000
  -0.00001  -0.00000  -0.00000  -0.00000   0.01777  -0.00000  -0.00000   0.00030


================================================================================

 ----iterations are completed or convergence reached----

 Mean square residual over all n,k,spin=   5.2419E-08; max=  1.0102E-07
   0.0000  0.0000  0.0000    1  1.01022E-07 kpt; spin; max resid(k); each band:
 9.22E-08 5.68E-09 3.39E-08 1.65E-08 2.21E-08 1.01E-07 1.13E-08 9.83E-08
 8.32E-08 6.00E-08
 reduced coordinates (array xred) for    4 atoms
       0.000000000000      0.000000000000      0.000000000000
       0.500000000000      0.500000000000      0.000000000000
       0.500000000000      0.000000000000      0.500000000000
       0.000000000000      0.500000000000      0.500000000000
 rms dE/dt=  2.8541E-04; max dE/dt=  5.6189E-04; dE/dt below (all hartree)
    1      -0.000404692921     -0.000085445167      0.000087335715
    2       0.000358405271      0.000023154130      0.000561888242
    3       0.000285928531     -0.000005973725     -0.000321176713
    4      -0.000216033788      0.000055563789     -0.000345513754

 cartesian coordinates (angstrom) at end:
    1      0.00000000000000     0.00000000000000     0.00000000000000
    2      1.95477002498729     1.95477002498729     0.00000000000000
    3      1.95477002498729     0.00000000000000     1.95477002498729
    4      0.00000000000000     1.95477002498729     1.95477002498729

 cartesian forces (hartree/bohr) at end:
    1      0.00005557619351     0.00001113567529    -0.00001241240371
    2     -0.00004771323858    -0.00000356382188    -0.00007664563288
    3     -0.00003790312321     0.00000037878957     0.00004288194377
    4      0.00003004016828    -0.00000795064299     0.00004617609282
 frms,max,avg= 3.8626522E-05 7.6645633E-05  -7.988E-07  4.298E-07  5.910E-07 h/b

 cartesian forces (eV/Angstrom) at end:
    1      0.00285784253454     0.00057261939868    -0.00063827140772
    2     -0.00245351316950    -0.00018325907385    -0.00394127657747
    3     -0.00194905679664     0.00001947814136     0.00220507802244
    4      0.00154472743160    -0.00040883846619     0.00237446996274
 frms,max,avg= 1.9862555E-03 3.9412766E-03  -4.108E-05  2.210E-05  3.039E-05 e/A
 length scales=  7.387960000000  7.387960000000  7.387960000000 bohr
              =  3.909540049975  3.909540049975  3.909540049975 angstroms
 prteigrs : about to open file t09o_EIG
 Fermi (or HOMO) energy (hartree) =   0.08179   Average Vxc (hartree)=  -0.35932
 Eigenvalues (hartree) for nkpt=   1  k points:
 kpt#   1, nband= 10, wtk=  1.00000, kpt=  0.0000  0.0000  0.0000 (reduced coord)
  -0.31250   0.00531   0.00534   0.00534   0.07909   0.07928   0.07937   0.34382
   0.34386   0.34397
      occupation numbers for kpt#   1
   2.00000   2.00000   2.00000   2.00000   1.35245   1.32946   1.31809   0.00000
   0.00000   0.00000
 Fermi (or HOMO) energy (eV) =   2.22572   Average Vxc (eV)=  -9.77751
 Eigenvalues (   eV  ) for nkpt=   1  k points:
 kpt#   1, nband= 10, wtk=  1.00000, kpt=  0.0000  0.0000  0.0000 (reduced coord)
  -8.50344   0.14441   0.14520   0.14538   2.15207   2.15728   2.15982   9.35575
   9.35677   9.35991
 Total charge density [el/Bohr^3]
,     Maximum=    3.4127E-02  at reduced coord.    0.0000    0.3125    0.6875
,Next maximum=    3.4124E-02  at reduced coord.    0.0208    0.3125    0.6875
,     Minimum=    5.2286E-03  at reduced coord.    0.5000    0.5000    0.0000
,Next minimum=    5.2578E-03  at reduced coord.    0.0000    0.0000    0.0000

--------------------------------------------------------------------------------
 Components of total free energy (in Hartree) :

    Kinetic energy  =  3.79202867573340E+00
    Hartree energy  =  1.19438372155125E-02
    XC energy       = -3.42683009233758E+00
    Ewald energy    = -1.11705419810135E+01
    PspCore energy  =  2.42365807456331E+00
    Loc. psp. energy= -4.46387193788689E-02
    Spherical terms =  2.40455878107914E-01
    >>>>> Internal E= -8.17392432710977E+00

    -kT*entropy     = -1.40322183256391E-02
    >>>>>>>>> Etotal= -8.18795654543541E+00

 "Double-counting" decomposition of free energy:
    Band energy     = -2.76042296468636E-01
    Ewald energy    = -1.11705419810135E+01
    PspCore energy  =  2.42365807456331E+00
    Dble-C XC-energy=  8.97319642680293E-01
    Spherical terms = -4.51554185004537E-02
    >>>>> Internal E= -8.17076197873894E+00

    -kT*entropy     = -1.40322183256391E-02
    >>>> Etotal (DC)= -8.18479419706458E+00

  >Total energy in eV           = -2.22805628586842E+02
  >Total DC energy in eV        = -2.22719576711425E+02
--------------------------------------------------------------------------------

 Cartesian components of stress tensor (hartree/bohr^3)
  sigma(1 1)= -1.06173462E-03  sigma(3 2)=  3.10701789E-08
  sigma(2 2)= -1.05125751E-03  sigma(3 1)=  2.56311487E-07
  sigma(3 3)= -1.05996652E-03  sigma(2 1)= -1.11103298E-07

-Cartesian components of stress tensor (GPa)         [Pressure=  3.1117E+01 GPa]
- sigma(1 1)= -3.12373057E+01  sigma(3 2)=  9.14116069E-04
- sigma(2 2)= -3.09290587E+01  sigma(3 1)=  7.54094304E-03
- sigma(3 3)= -3.11852865E+01  sigma(2 1)= -3.26877133E-03

== END DATASET(S) ==============================================================
================================================================================
  
 -outvars: echo values of variables after computation  --------
     acell    7.3879600000E+00  7.3879600000E+00  7.3879600000E+00 Bohr
       amu    2.69800000E+01
      ecut    1.00000000E+01 Hartree
    enunit         2
    etotal   -8.1847941971E+00
     fcart    5.5576193508E-05  1.1135675294E-05 -1.2412403706E-05
             -4.7713238583E-05 -3.5638218786E-06 -7.6645632882E-05
             -3.7903123205E-05  3.7878957306E-07  4.2881943772E-05
              3.0040168280E-05 -7.9506429889E-06  4.6176092816E-05
    istwfk      1
       ixc         7
P    mkmem         1
     natom         4
     nband        10
     ngfft        24      24      24
   ngfftdg        48      48      48
      nkpt         1
     nstep         5
      nsym         1
    ntypat         1
       occ    2.000000  2.000000  2.000000  2.000000  1.352451  1.329462
              1.318088  0.000000  0.000000  0.000000
    occopt         3
 pawecutdg    5.00000000E+01 Hartree
  pawmixdg         1
    prtden         0
  prtnabla         1
   spgroup         1
    strten   -1.0617346181E-03 -1.0512575135E-03 -1.0599665214E-03
              3.1070178884E-08  2.5631148744E-07 -1.1110329800E-07
    toldfe    1.00000000E-05 Hartree
    tsmear    3.67490000E-03 Hartree
     typat    1  1  1  1
    useylm         1
    xangst    0.0000000000E+00  0.0000000000E+00  0.0000000000E+00
              1.9547700250E+00  1.9547700250E+00  0.0000000000E+00
              1.9547700250E+00  0.0000000000E+00  1.9547700250E+00
              0.0000000000E+00  1.9547700250E+00  1.9547700250E+00
     xcart    0.0000000000E+00  0.0000000000E+00  0.0000000000E+00
              3.6939800000E+00  3.6939800000E+00  0.0000000000E+00
              3.6939800000E+00  0.0000000000E+00  3.6939800000E+00
              0.0000000000E+00  3.6939800000E+00  3.6939800000E+00
      xred    0.0000000000E+00  0.0000000000E+00  0.0000000000E+00
              5.0000000000E-01  5.0000000000E-01  0.0000000000E+00
              5.0000000000E-01  0.0000000000E+00  5.0000000000E-01
              0.0000000000E+00  5.0000000000E-01  5.0000000000E-01
     znucl     13.00000

================================================================================

- Total cpu        time (s,m,h):          3.5        0.06      0.001
- Total wall clock time (s,m,h):          3.5        0.06      0.001

- For major independent code sections, cpu and wall times (sec),
- as well as % of the total time and number of calls 

- routine                 cpu     %       wall     %      number of calls 
-                                                          (-1=no count)
- pspini                 0.834  23.6      0.834  23.6              1
- timing timab           0.507  14.3      0.507  14.3             12
- forces                 0.494  14.0      0.494  14.0              5
- fourdp                 0.266   7.5      0.262   7.4             61
- fourwf(pot)            0.231   6.5      0.224   6.3            314
- nhatgrid               0.148   4.2      0.147   4.2              1
- xc:pot/=fourdp         0.146   4.1      0.145   4.1             51
- vtorho:mknhat          0.120   3.4      0.120   3.4              5
- invars2                0.106   3.0      0.106   3.0              1
- vtowfk(ssdiag)         0.082   2.3      0.084   2.4             -1
- status                 0.074   2.1      0.075   2.1            226
- vtorho:ntild+nha       0.070   2.0      0.070   2.0              5
- nonlop(apply)          0.066   1.9      0.073   2.1            314
- vtorho  (1)            0.042   1.2      0.042   1.2              5
- pawdij                 0.035   1.0      0.034   1.0              5
- abinit(2)              0.031   0.9      0.031   0.9              1
- stress                 0.030   0.8      0.030   0.8              1
- pawdenpot              0.023   0.7      0.023   0.7              5
- 52   others            0.092   2.6      0.090   2.5

- subtotal               3.397  96.0      3.391  95.8

================================================================================

 Calculation completed.
.Delivered    2 WARNINGs and   2 COMMENTs to log file.
+Overall time at end (sec) : cpu=          3.5  wall=          3.5
