
.Version 5.6.3  of ABINIT 
.(sequential version, prepared for a x86_64_linux_gcc4.3 computer) 

.Copyright (C) 1998-2008 ABINIT group . 
 ABINIT comes with ABSOLUTELY NO WARRANTY.
 It is free software, and you are welcome to redistribute it
 under certain conditions (GNU General Public License,
 see ~abinit/COPYING or http://www.gnu.org/copyleft/gpl.txt).

 ABINIT is a project of the Universite Catholique de Louvain,
 Corning Inc. and other collaborators, see ~abinit/doc/developers/contributors.txt .
 Please read ~abinit/doc/users/acknowledgments.html for suggested
 acknowledgments of the ABINIT effort.
 For more information, see http://www.abinit.org .

.Starting date : Thu  6 Nov 2008.
  
- input  file    -> /home/gonze/ABINIT/ABINITv5.6.3/test_gcc43/5.6.3-private/tests/v5/Input/t11.in
- output file    -> t11.out
- root for input  files -> t11i
- root for output files -> t11o


 Magnetic group, Shubnikov type IV
 Fedorov space group R-3 m (#166)
 Magnetic Bravais lattice hR_I (rhombohedral, centered magnetic, #31)
================================================================================
 Values of the parameters that define the memory need of the present run
   intxc =         0  ionmov =         0    iscf =        17 xclevel =         1
  lmnmax =        18   lnmax =         6   mband =        30  mffmem =         1
P  mgfft =        32   mkmem =         3 mpssoang=         3     mpw =       379
  mqgrid =      3001   natom =         4    nfft =      8192    nkpt =         3
  nloalg =         4  nspden =         2 nspinor =         1  nsppol =         1
    nsym =        24  n1xccc =         1  ntypat =         2  occopt =         7
 PAW method is used; the additional fine FFT grid is defined by:
   mgfftf=        48    nfftf =     27648
================================================================================
P This job should need less than                      13.479 Mbytes of memory.
  Rough estimation (10% accuracy) of disk space for files :
  WF disk file :      0.522 Mbytes ; DEN or POT disk file :      0.213 Mbytes.
================================================================================

 -outvars: echo values of preprocessed input variables --------
     acell    7.9200000000E+00  7.9200000000E+00  7.9200000000E+00 Bohr
       amu    5.86900000E+01  1.59994000E+01
    diemix    9.00000000E-01
      ecut    1.00000000E+01 Hartree
       ixc         7
       kpt    2.50000000E-01  2.50000000E-01  2.50000000E-01
             -2.50000000E-01  2.50000000E-01  2.50000000E-01
             -2.50000000E-01 -2.50000000E-01  2.50000000E-01
   kptrlen    1.12005714E+01
    kptopt         1
  kptrlatt    2  0  0   0  2  0   0  0  2
P    mkmem         3
     natom         4
  npulayit         5
     nband        30
     ngfft        16      16      32
   ngfftdg        24      24      48
      nkpt         3
    nspden         2
     nstep        40
      nsym        24
    ntypat         2
       occ    2.000000  2.000000  2.000000  2.000000  2.000000  2.000000
              2.000000  2.000000  2.000000  2.000000  2.000000  2.000000
              2.000000  2.000000  2.000000  2.000000  2.000000  2.000000
              2.000000  2.000000  2.000000  2.000000  2.000000  2.000000
              0.000000  0.000000  0.000000  0.000000  0.000000  0.000000
              2.000000  2.000000  2.000000  2.000000  2.000000  2.000000
              2.000000  2.000000  2.000000  2.000000  2.000000  2.000000
              2.000000  2.000000  2.000000  2.000000  2.000000  2.000000
              2.000000  2.000000  2.000000  2.000000  2.000000  2.000000
              0.000000  0.000000  0.000000  0.000000  0.000000  0.000000
              2.000000  2.000000  2.000000  2.000000  2.000000  2.000000
              2.000000  2.000000  2.000000  2.000000  2.000000  2.000000
              2.000000  2.000000  2.000000  2.000000  2.000000  2.000000
              2.000000  2.000000  2.000000  2.000000  2.000000  2.000000
              0.000000  0.000000  0.000000  0.000000  0.000000  0.000000
    occopt         7
 optforces         2
 pawecutdg    2.00000000E+01 Hartree
 pawsphmix    9.0000000000E-01
 dmatpuopt         1
 usedmatpu        10
   usepawu         1
     jpawu    3.50000000E-02  0.00000000E+00
     lpawu         2      -1
     upawu    3.00000000E-01  0.00000000E+00
  dmatpawu    1.00000000E+00  0.00000000E+00  0.00000000E+00
              0.00000000E+00  0.00000000E+00  0.00000000E+00
              1.00000000E+00  0.00000000E+00  0.00000000E+00
              0.00000000E+00  0.00000000E+00  0.00000000E+00
              1.00000000E+00  0.00000000E+00  0.00000000E+00
              0.00000000E+00  0.00000000E+00  0.00000000E+00
              1.00000000E+00  0.00000000E+00  0.00000000E+00
              0.00000000E+00  0.00000000E+00  0.00000000E+00
              1.00000000E+00  1.00000000E+00  0.00000000E+00
              0.00000000E+00  0.00000000E+00  0.00000000E+00
              0.00000000E+00  1.00000000E+00  0.00000000E+00
              0.00000000E+00  0.00000000E+00  0.00000000E+00
              0.00000000E+00  0.00000000E+00  0.00000000E+00
              0.00000000E+00  0.00000000E+00  0.00000000E+00
              0.00000000E+00  1.00000000E+00  0.00000000E+00
              0.00000000E+00  0.00000000E+00  0.00000000E+00
              0.00000000E+00  0.00000000E+00
 prtdensph         1
    ratsph    2.30000000E+00  2.30000000E+00 Bohr
     rprim    0.0000000000E+00  5.0000000000E-01  5.0000000000E-01
              5.0000000000E-01  0.0000000000E+00  5.0000000000E-01
              1.0000000000E+00  1.0000000000E+00  0.0000000000E+00
    shiftk    5.00000000E-01  5.00000000E-01  5.00000000E-01
   spgroup       166
    spinat    0.0000000000E+00  0.0000000000E+00  1.0000000000E+00
              0.0000000000E+00  0.0000000000E+00 -1.0000000000E+00
              0.0000000000E+00  0.0000000000E+00  0.0000000000E+00
              0.0000000000E+00  0.0000000000E+00  0.0000000000E+00
    symafm    1 -1  1  -1  1 -1   1 -1  1      -1  1 -1   1 -1  1  -1  1 -1
              1 -1  1  -1  1 -1
    symrel    1  0  0   0  1  0   0  0  1       1  0  0   0  1  0   0  0  1
             -1  0  0   0 -1  0   0  0 -1      -1  0  0   0 -1  0   0  0 -1
              0  1  0   1  0  0   0  0  1       0  1  0   1  0  0   0  0  1
              0 -1  0  -1  0  0   0  0 -1       0 -1  0  -1  0  0   0  0 -1
              0 -1  0   1 -1  0   0 -2  1       0 -1  0   1 -1  0   0 -2  1
              0  1  0  -1  1  0   0  2 -1       0  1  0  -1  1  0   0  2 -1
              1 -1  0   0 -1  0   0 -2  1       1 -1  0   0 -1  0   0 -2  1
             -1  1  0   0  1  0   0  2 -1      -1  1  0   0  1  0   0  2 -1
             -1  1  0  -1  0  0  -2  0  1      -1  1  0  -1  0  0  -2  0  1
              1 -1  0   1  0  0   2  0 -1       1 -1  0   1  0  0   2  0 -1
             -1  0  0  -1  1  0  -2  0  1      -1  0  0  -1  1  0  -2  0  1
              1  0  0   1 -1  0   2  0 -1       1  0  0   1 -1  0   2  0 -1
     tnons    0.0000000  0.0000000  0.0000000     0.0000000  0.0000000  0.5000000
              0.0000000  0.0000000  0.0000000     0.0000000  0.0000000  0.5000000
              0.0000000  0.0000000  0.0000000     0.0000000  0.0000000  0.5000000
              0.0000000  0.0000000  0.0000000     0.0000000  0.0000000  0.5000000
              0.0000000  0.0000000  0.0000000     0.0000000  0.0000000  0.5000000
              0.0000000  0.0000000  0.0000000     0.0000000  0.0000000  0.5000000
              0.0000000  0.0000000  0.0000000     0.0000000  0.0000000  0.5000000
              0.0000000  0.0000000  0.0000000     0.0000000  0.0000000  0.5000000
              0.0000000  0.0000000  0.0000000     0.0000000  0.0000000  0.5000000
              0.0000000  0.0000000  0.0000000     0.0000000  0.0000000  0.5000000
              0.0000000  0.0000000  0.0000000     0.0000000  0.0000000  0.5000000
              0.0000000  0.0000000  0.0000000     0.0000000  0.0000000  0.5000000
    tolvrs    1.00000000E-08
    tsmear    5.00000000E-03 Hartree
     typat    1  1  2  2
    useylm         1
       wtk      0.25000    0.50000    0.25000
    xangst    0.0000000000E+00  0.0000000000E+00  0.0000000000E+00
              2.0955417460E+00  2.0955417460E+00  0.0000000000E+00
              2.0955417460E+00  2.0955417460E+00  2.0955417460E+00
              4.1910834920E+00  4.1910834920E+00  2.0955417460E+00
     xcart    0.0000000000E+00  0.0000000000E+00  0.0000000000E+00
              3.9600000000E+00  3.9600000000E+00  0.0000000000E+00
              3.9600000000E+00  3.9600000000E+00  3.9600000000E+00
              7.9200000000E+00  7.9200000000E+00  3.9600000000E+00
      xred    0.0000000000E+00  0.0000000000E+00  0.0000000000E+00
              0.0000000000E+00  0.0000000000E+00  5.0000000000E-01
              5.0000000000E-01  5.0000000000E-01  2.5000000000E-01
              5.0000000000E-01  5.0000000000E-01  7.5000000000E-01
     znucl     28.00000    8.00000

================================================================================

 chkinp: Checking input parameters for consistency.

================================================================================
== DATASET  1 ==================================================================

 Real(R)+Recip(G) space primitive vectors, cartesian coordinates (Bohr,Bohr^-1):
 R(1)=  0.0000000  3.9600000  3.9600000  G(1)= -0.1262626  0.1262626  0.1262626
 R(2)=  3.9600000  0.0000000  3.9600000  G(2)=  0.1262626 -0.1262626  0.1262626
 R(3)=  7.9200000  7.9200000  0.0000000  G(3)=  0.0631313  0.0631313 -0.0631313
 Unit cell volume ucvol=  2.4839654E+02 bohr^3
 Angles (23,13,12)=  6.00000000E+01  6.00000000E+01  6.00000000E+01 degrees

 Coarse grid specifications (used for wave-functions):

 getcut: wavevector=  0.0000  0.0000  0.0000  ngfft=  16  16  32
         ecut(hartree)=     10.000   => boxcut(ratio)=   2.00699

 Fine grid specifications (used for densities):

 getcut: wavevector=  0.0000  0.0000  0.0000  ngfft=  24  24  48
         ecut(hartree)=     20.000   => boxcut(ratio)=   2.12873

--- Pseudopotential description ------------------------------------------------
- pspini: atom type   1  psp file is /home/gonze/ABINIT/ABINITv5.6.3/test_gcc43/5.6.3-private/tests/Psps_for_tests/28ni.paw
- pspatm: opening atomic psp file    /home/gonze/ABINIT/ABINITv5.6.3/test_gcc43/5.6.3-private/tests/Psps_for_tests/28ni.paw
 Paw atomic data for element Ni - Generated by AtomPAW (N. Holzwarth) + AtomPAW2Abinit v3.0.5
  28.00000  18.00000  20061204                znucl, zion, pspdat
    7    7    2    0       350   0.00000      pspcod,pspxc,lmax,lloc,mmax,r2well
 Pseudopotential format is: paw3
 basis_size (lnmax)=  5 (lmn_size= 13), orbitals=   0   0   1   1   2
 Spheres core radius: rc_sph= 2.30000000
 3 radial meshes are used:
  - mesh 1: r(i)=AA*exp(BB*(i-2)), size= 350 , AA= 0.11804E-04 BB= 0.35000E-01
  - mesh 2: r(i)=step*(i-1), size= 921 , step= 0.25000E-02
  - mesh 3: r(i)=AA*exp(BB*(i-2)), size= 391 , AA= 0.11804E-04 BB= 0.35000E-01
 Shapefunction is SIN type: shapef(r)=[sin(pi*r/rshp)/(pi*r/rshp)]**2
 Radius for shape functions = sphere core radius
 Radial grid used for partial waves is grid 1
 Radial grid used for projectors is grid 2
 Radial grid used for (t)core density is grid 1
 Radial grid used for Vloc is grid 3

 psp7in: WARNING -
  Atomic data could produce inaccurate results:
    Wavefunctions and pseudo-wavefunctions should
    be given on a radial mesh larger than the PAW
    spheres (at least 2 additional points) !
  Action: check your pseudopotential file.
 pspatm: atomic psp has been read  and splines computed

- pspini: atom type   2  psp file is /home/gonze/ABINIT/ABINITv5.6.3/test_gcc43/5.6.3-private/tests/Psps_for_tests/8o.2.paw
- pspatm: opening atomic psp file    /home/gonze/ABINIT/ABINITv5.6.3/test_gcc43/5.6.3-private/tests/Psps_for_tests/8o.2.paw
 Paw atomic data extracted from US-psp (D.Vanderbilt): Oxygen
   8.00000   6.00000  20050722                znucl, zion, pspdat
    7   11    2    0       489   0.00000      pspcod,pspxc,lmax,lloc,mmax,r2well
 Pseudopotential format is: paw3
 basis_size (lnmax)=  6 (lmn_size= 18), orbitals=   0   0   1   1   2   2
 Spheres core radius: rc_sph= 1.21105161
 4 radial meshes are used:
  - mesh 1: r(i)=AA*[exp(BB*(i-1))-1], size= 489 , AA= 0.30984E-03 BB= 0.16949E-01
  - mesh 2: r(i)=AA*[exp(BB*(i-1))-1], size= 548 , AA= 0.30984E-03 BB= 0.16949E-01
  - mesh 3: r(i)=AA*[exp(BB*(i-1))-1], size= 509 , AA= 0.30984E-03 BB= 0.16949E-01
  - mesh 4: r(i)=AA*[exp(BB*(i-1))-1], size= 613 , AA= 0.30984E-03 BB= 0.16949E-01
 Shapefunction is SIN type: shapef(r)=[sin(pi*r/rshp)/(pi*r/rshp)]**2
 Radius for shape functions = sphere core radius
 Radial grid used for partial waves is grid 1
 Radial grid used for projectors is grid 2
 Radial grid used for (t)core density is grid 3
 Radial grid used for Vloc is grid 4

 psp7in: WARNING -
  Atomic data could produce inaccurate results:
    Wavefunctions and pseudo-wavefunctions should
    be given on a radial mesh larger than the PAW
    spheres (at least 2 additional points) !
  Action: check your pseudopotential file.
 pspatm: atomic psp has been read  and splines computed

   5.32753584E+03                                ecore*ucvol(ha*bohr**3)
--------------------------------------------------------------------------------

P newkpt: treating     30 bands with npw=     367 for ikpt=   1
P newkpt: treating     30 bands with npw=     379 for ikpt=   2
P newkpt: treating     30 bands with npw=     373 for ikpt=   3

 setup2: Arith. and geom. avg. npw (full set) are     374.500     374.467


******************************************
 LDA+U Method used: FLL
******************************************

================================================================================

     iter   Etot(hartree)      deltaE(h)  residm     nres2
 ETOT  1  -369.56469630681    -3.696E+02 6.425E+00 7.238E+01
 ETOT  2  -373.07011216367    -3.505E+00 2.038E-02 8.751E+01
 ETOT  3  -371.90290395065     1.167E+00 9.559E-03 8.579E+00
 ETOT  4  -370.56578317677     1.337E+00 1.036E-02 1.254E+00
 ETOT  5  -369.84324787354     7.225E-01 3.058E-03 3.794E-01
 ETOT  6  -369.67798629644     1.653E-01 2.795E-04 4.099E-02
 ETOT  7  -369.68032777813    -2.341E-03 5.606E-05 2.930E-02
 ETOT  8  -369.71480904671    -3.448E-02 1.351E-05 2.755E-03
 ETOT  9  -369.69114121743     2.367E-02 9.470E-06 8.693E-04
 ETOT 10  -369.68810143765     3.040E-03 8.225E-07 5.259E-05
 ETOT 11  -372.02806905701    -2.340E+00 2.068E-02 7.463E+00
 ETOT 12  -372.03409206990    -6.023E-03 6.010E-06 8.492E+00
 ETOT 13  -372.03402658489     6.549E-05 9.493E-07 8.471E+00
 ETOT 14  -372.03391751557     1.091E-04 2.416E-07 8.450E+00
 ETOT 15  -372.03432648372    -4.090E-04 1.654E-07 8.526E+00
 ETOT 16  -372.03438313931    -5.666E-05 1.400E-08 8.540E+00
 ETOT 17  -371.98798917506     4.639E-02 4.356E-03 3.865E+00
 ETOT 18  -371.98518229451     2.807E-03 8.542E-04 1.320E-01
 ETOT 19  -371.98525012724    -6.783E-05 3.425E-05 5.469E-03
 ETOT 20  -371.98535785033    -1.077E-04 3.304E-06 4.869E-03
 ETOT 21  -371.98536467471    -6.824E-06 1.691E-06 1.850E-03
 ETOT 22  -371.98535512543     9.549E-06 9.883E-07 6.008E-05
 ETOT 23  -371.98535547405    -3.486E-07 3.483E-08 3.898E-06
 ETOT 24  -371.98535550193    -2.788E-08 1.546E-09 1.240E-06
 ETOT 25  -371.98535551018    -8.253E-09 1.351E-09 1.177E-07
 ETOT 26  -371.98535551444    -4.262E-09 3.828E-10 2.210E-08
 ETOT 27  -371.98535551365     7.977E-10 2.003E-10 1.766E-08
 ETOT 28  -371.98535551477    -1.122E-09 1.687E-11 9.960E-10

 At SCF step   28       nres2   =  9.96E-10 < tolvrs=  1.00E-08 =>converged.

 Cartesian components of stress tensor (hartree/bohr^3)
  sigma(1 1)=  1.23453407E-02  sigma(3 2)=  2.88645633E-05
  sigma(2 2)=  1.23453407E-02  sigma(3 1)=  2.88645633E-05
  sigma(3 3)=  1.23453407E-02  sigma(2 1)= -2.88645633E-05


 Integrated total density in atomic spheres:
 -------------------------------------------
 Atom  Sphere radius  Integrated_up_density  Integrated_dn_density  Total(up+dn)   Diff(up-dn)
    1        2.30000             9.24316251             7.63135854   16.87452105    1.61180396
    2        2.30000             7.63135854             9.24316251   16.87452105   -1.61180396
    3        2.30000             3.54509380             3.54509380    7.09018760   -0.00000000
    4        2.30000             3.54509380             3.54509380    7.09018760   -0.00000000
 Note: Diff(up-dn) can be considered as a rough approximation of a local magnetic moment.



 PAW TEST:
 ==== Compensation charge inside spheres ============
 The following values must be close to each other ...
 Compensation charge over spherical meshes =     22.072584758303840
 Compensation charge over fine fft grid    =     22.072704919277925

 ==== Results concerning PAW augmentation regions ====

 Total pseudopotential strength Dij (hartree):
 Atom #  1 - Spin component 1
  -2.89640  -0.96584   0.00000   0.00000   0.00000   0.00000   0.00000   0.00000  -0.00028   0.00028   0.00000   0.00028 ...
  -0.96584  -0.57093   0.00000   0.00000   0.00000   0.00000   0.00000   0.00000  -0.00008   0.00008   0.00000   0.00008 ...
   0.00000   0.00000  -2.32694   0.00025  -0.00025  -0.52260   0.00006  -0.00006   0.00000   0.00000   0.00000   0.00000 ...
   0.00000   0.00000   0.00025  -2.32694   0.00025   0.00006  -0.52260   0.00006   0.00000   0.00000   0.00000   0.00000 ...
   0.00000   0.00000  -0.00025   0.00025  -2.32694  -0.00006   0.00006  -0.52260   0.00000   0.00000   0.00000   0.00000 ...
   0.00000   0.00000  -0.52260   0.00006  -0.00006  -0.32354   0.00002  -0.00002   0.00000   0.00000   0.00000   0.00000 ...
   0.00000   0.00000   0.00006  -0.52260   0.00006   0.00002  -0.32354   0.00002   0.00000   0.00000   0.00000   0.00000 ...
   0.00000   0.00000  -0.00006   0.00006  -0.52260  -0.00002   0.00002  -0.32354   0.00000   0.00000   0.00000   0.00000 ...
  -0.00028  -0.00008   0.00000   0.00000   0.00000   0.00000   0.00000   0.00000  -0.48002   0.00024   0.00040   0.00024 ...
   0.00028   0.00008   0.00000   0.00000   0.00000   0.00000   0.00000   0.00000   0.00024  -0.48002   0.00020  -0.00024 ...
   0.00000   0.00000   0.00000   0.00000   0.00000   0.00000   0.00000   0.00000   0.00040   0.00020  -0.53600   0.00020 ...
   0.00028   0.00008   0.00000   0.00000   0.00000   0.00000   0.00000   0.00000   0.00024  -0.00024   0.00020  -0.48002 ...
   ...  only 12  components have been written...
 Atom #  1 - Spin component 2
  -2.85939  -0.95040   0.00000   0.00000   0.00000   0.00000   0.00000   0.00000  -0.00013   0.00013   0.00000   0.00013 ...
  -0.95040  -0.57025   0.00000   0.00000   0.00000   0.00000   0.00000   0.00000  -0.00004   0.00004   0.00000   0.00004 ...
   0.00000   0.00000  -2.27720   0.00012  -0.00012  -0.50846   0.00003  -0.00003   0.00000   0.00000   0.00000   0.00000 ...
   0.00000   0.00000   0.00012  -2.27720   0.00012   0.00003  -0.50846   0.00003   0.00000   0.00000   0.00000   0.00000 ...
   0.00000   0.00000  -0.00012   0.00012  -2.27720  -0.00003   0.00003  -0.50846   0.00000   0.00000   0.00000   0.00000 ...
   0.00000   0.00000  -0.50846   0.00003  -0.00003  -0.32108   0.00001  -0.00001   0.00000   0.00000   0.00000   0.00000 ...
   0.00000   0.00000   0.00003  -0.50846   0.00003   0.00001  -0.32108   0.00001   0.00000   0.00000   0.00000   0.00000 ...
   0.00000   0.00000  -0.00003   0.00003  -0.50846  -0.00001   0.00001  -0.32108   0.00000   0.00000   0.00000   0.00000 ...
  -0.00013  -0.00004   0.00000   0.00000   0.00000   0.00000   0.00000   0.00000  -0.46768   0.00028  -0.00077   0.00028 ...
   0.00013   0.00004   0.00000   0.00000   0.00000   0.00000   0.00000   0.00000   0.00028  -0.46768  -0.00039  -0.00028 ...
   0.00000   0.00000   0.00000   0.00000   0.00000   0.00000   0.00000   0.00000  -0.00077  -0.00039  -0.24524  -0.00039 ...
   0.00013   0.00004   0.00000   0.00000   0.00000   0.00000   0.00000   0.00000   0.00028  -0.00028  -0.00039  -0.46768 ...
   ...  only 12  components have been written...
 Atom #  4 - Spin component 1
   0.64415   1.08440   0.00024  -0.00024   0.00024   0.00037  -0.00037   0.00037  -0.00001   0.00001   0.00000   0.00001 ...
   1.08440   1.82249   0.00039  -0.00039   0.00039   0.00061  -0.00061   0.00061  -0.00002   0.00002   0.00000   0.00002 ...
   0.00024   0.00039  -0.29722  -0.00004   0.00004  -0.33867  -0.00005   0.00005  -0.00011   0.00011   0.00005   0.00000 ...
  -0.00024  -0.00039  -0.00004  -0.29722  -0.00004  -0.00005  -0.33867  -0.00005   0.00000  -0.00011   0.00010  -0.00011 ...
   0.00024   0.00039   0.00004  -0.00004  -0.29722   0.00005  -0.00005  -0.33867  -0.00011   0.00000   0.00005   0.00011 ...
   0.00037   0.00061  -0.33867  -0.00005   0.00005  -0.35233  -0.00007   0.00007  -0.00016   0.00016   0.00007   0.00000 ...
  -0.00037  -0.00061  -0.00005  -0.33867  -0.00005  -0.00007  -0.35233  -0.00007   0.00000  -0.00016   0.00015  -0.00016 ...
   0.00037   0.00061   0.00005  -0.00005  -0.33867   0.00007  -0.00007  -0.35233  -0.00016   0.00000   0.00007   0.00016 ...
  -0.00001  -0.00002  -0.00011   0.00000  -0.00011  -0.00016   0.00000  -0.00016  -0.01690  -0.00000  -0.00000  -0.00000 ...
   0.00001   0.00002   0.00011  -0.00011   0.00000   0.00016  -0.00016   0.00000  -0.00000  -0.01690  -0.00000   0.00000 ...
   0.00000   0.00000   0.00005   0.00010   0.00005   0.00007   0.00015   0.00007  -0.00000  -0.00000  -0.01693  -0.00000 ...
   0.00001   0.00002   0.00000  -0.00011   0.00011   0.00000  -0.00016   0.00016  -0.00000   0.00000  -0.00000  -0.01690 ...
   ...  only 12  components have been written...
 Atom #  4 - Spin component 2
   0.64415   1.08440  -0.00024   0.00024  -0.00024  -0.00037   0.00037  -0.00037  -0.00001   0.00001   0.00000   0.00001 ...
   1.08440   1.82249  -0.00039   0.00039  -0.00039  -0.00061   0.00061  -0.00061  -0.00002   0.00002   0.00000   0.00002 ...
  -0.00024  -0.00039  -0.29722  -0.00004   0.00004  -0.33867  -0.00005   0.00005   0.00011  -0.00011  -0.00005  -0.00000 ...
   0.00024   0.00039  -0.00004  -0.29722  -0.00004  -0.00005  -0.33867  -0.00005  -0.00000   0.00011  -0.00010   0.00011 ...
  -0.00024  -0.00039   0.00004  -0.00004  -0.29722   0.00005  -0.00005  -0.33867   0.00011  -0.00000  -0.00005  -0.00011 ...
  -0.00037  -0.00061  -0.33867  -0.00005   0.00005  -0.35233  -0.00007   0.00007   0.00016  -0.00016  -0.00007  -0.00000 ...
   0.00037   0.00061  -0.00005  -0.33867  -0.00005  -0.00007  -0.35233  -0.00007  -0.00000   0.00016  -0.00015   0.00016 ...
  -0.00037  -0.00061   0.00005  -0.00005  -0.33867   0.00007  -0.00007  -0.35233   0.00016  -0.00000  -0.00007  -0.00016 ...
  -0.00001  -0.00002   0.00011  -0.00000   0.00011   0.00016  -0.00000   0.00016  -0.01690  -0.00000  -0.00000  -0.00000 ...
   0.00001   0.00002  -0.00011   0.00011  -0.00000  -0.00016   0.00016  -0.00000  -0.00000  -0.01690  -0.00000   0.00000 ...
   0.00000   0.00000  -0.00005  -0.00010  -0.00005  -0.00007  -0.00015  -0.00007  -0.00000  -0.00000  -0.01693  -0.00000 ...
   0.00001   0.00002  -0.00000   0.00011  -0.00011  -0.00000   0.00016  -0.00016  -0.00000   0.00000  -0.00000  -0.01690 ...
   ...  only 12  components have been written...


 Augmentation waves occupancies Rhoij:
 Atom #  1 - Spin component 1
   1.03260  -0.07854   0.00000   0.00000   0.00000   0.00000   0.00000   0.00000   0.00015  -0.00015   0.00000  -0.00015 ...
  -0.07854   0.19172   0.00000   0.00000   0.00000   0.00000   0.00000   0.00000  -0.00033   0.00033   0.00000   0.00033 ...
   0.00000   0.00000   0.93373  -0.00008   0.00008   0.09004   0.00021  -0.00021   0.00000   0.00000   0.00000   0.00000 ...
   0.00000   0.00000  -0.00008   0.93373  -0.00008   0.00021   0.09004   0.00021   0.00000   0.00000   0.00000   0.00000 ...
   0.00000   0.00000   0.00008  -0.00008   0.93373  -0.00021   0.00021   0.09004   0.00000   0.00000   0.00000   0.00000 ...
   0.00000   0.00000   0.09004   0.00021  -0.00021   0.12932  -0.00061   0.00061   0.00000   0.00000   0.00000   0.00000 ...
   0.00000   0.00000   0.00021   0.09004   0.00021  -0.00061   0.12932  -0.00061   0.00000   0.00000   0.00000   0.00000 ...
   0.00000   0.00000  -0.00021   0.00021   0.09004   0.00061  -0.00061   0.12932   0.00000   0.00000   0.00000   0.00000 ...
   0.00015  -0.00033   0.00000   0.00000   0.00000   0.00000   0.00000   0.00000   0.98640  -0.00034   0.00007  -0.00034 ...
  -0.00015   0.00033   0.00000   0.00000   0.00000   0.00000   0.00000   0.00000  -0.00034   0.98640   0.00004   0.00034 ...
   0.00000   0.00000   0.00000   0.00000   0.00000   0.00000   0.00000   0.00000   0.00007   0.00004   1.01207   0.00004 ...
  -0.00015   0.00033   0.00000   0.00000   0.00000   0.00000   0.00000   0.00000  -0.00034   0.00034   0.00004   0.98640 ...
   ...  only 12  components have been written...
 Atom #  1 - Spin component 2
   1.03103  -0.07775   0.00000   0.00000   0.00000   0.00000   0.00000   0.00000   0.00019  -0.00019   0.00000  -0.00019 ...
  -0.07775   0.19745   0.00000   0.00000   0.00000   0.00000   0.00000   0.00000  -0.00044   0.00044   0.00000   0.00044 ...
   0.00000   0.00000   0.92988  -0.00038   0.00038   0.09469   0.00100  -0.00100   0.00000   0.00000   0.00000   0.00000 ...
   0.00000   0.00000  -0.00038   0.92988  -0.00038   0.00100   0.09469   0.00100   0.00000   0.00000   0.00000   0.00000 ...
   0.00000   0.00000   0.00038  -0.00038   0.92988  -0.00100   0.00100   0.09469   0.00000   0.00000   0.00000   0.00000 ...
   0.00000   0.00000   0.09469   0.00100  -0.00100   0.13561  -0.00269   0.00269   0.00000   0.00000   0.00000   0.00000 ...
   0.00000   0.00000   0.00100   0.09469   0.00100  -0.00269   0.13561  -0.00269   0.00000   0.00000   0.00000   0.00000 ...
   0.00000   0.00000  -0.00100   0.00100   0.09469   0.00269  -0.00269   0.13561   0.00000   0.00000   0.00000   0.00000 ...
   0.00019  -0.00044   0.00000   0.00000   0.00000   0.00000   0.00000   0.00000   0.98223  -0.00030   0.00392  -0.00030 ...
  -0.00019   0.00044   0.00000   0.00000   0.00000   0.00000   0.00000   0.00000  -0.00030   0.98223   0.00196   0.00030 ...
   0.00000   0.00000   0.00000   0.00000   0.00000   0.00000   0.00000   0.00000   0.00392   0.00196   0.14293   0.00196 ...
  -0.00019   0.00044   0.00000   0.00000   0.00000   0.00000   0.00000   0.00000  -0.00030   0.00030   0.00196   0.98223 ...
   ...  only 12  components have been written...
 Atom #  4 - Spin component 1
   1.14133  -0.08265   0.00049  -0.00049   0.00049  -0.00387   0.00387  -0.00387   0.00179  -0.00179   0.00000  -0.00179 ...
  -0.08265   0.01369  -0.00954   0.00954  -0.00954   0.00037  -0.00037   0.00037   0.00021  -0.00021   0.00000  -0.00021 ...
   0.00049  -0.00954   1.57928   0.00013  -0.00013  -0.38815  -0.00104   0.00104  -0.00811   0.00811   0.01936   0.00011 ...
  -0.00049   0.00954   0.00013   1.57928   0.00013  -0.00104  -0.38815  -0.00104   0.00011  -0.00811   0.03872  -0.00811 ...
   0.00049  -0.00954  -0.00013   0.00013   1.57928   0.00104  -0.00104  -0.38815  -0.00811   0.00011   0.01936   0.00811 ...
  -0.00387   0.00037  -0.38815  -0.00104   0.00104   0.10361   0.00033  -0.00033   0.00233  -0.00233   0.00298   0.00026 ...
   0.00387  -0.00037  -0.00104  -0.38815  -0.00104   0.00033   0.10361   0.00033   0.00026   0.00233   0.00596   0.00233 ...
  -0.00387   0.00037   0.00104  -0.00104  -0.38815  -0.00033   0.00033   0.10361   0.00233   0.00026   0.00298  -0.00233 ...
   0.00179   0.00021  -0.00811   0.00011  -0.00811   0.00233   0.00026   0.00233   0.08779   0.00101   0.00751   0.00101 ...
  -0.00179  -0.00021   0.00811  -0.00811   0.00011  -0.00233   0.00233   0.00026   0.00101   0.08779   0.00376  -0.00101 ...
   0.00000   0.00000   0.01936   0.03872   0.01936   0.00298   0.00596   0.00298   0.00751   0.00376   0.29422   0.00376 ...
  -0.00179  -0.00021   0.00011  -0.00811   0.00811   0.00026   0.00233  -0.00233   0.00101  -0.00101   0.00376   0.08779 ...
   ...  only 12  components have been written...
 Atom #  4 - Spin component 2
   1.14133  -0.08265  -0.00049   0.00049  -0.00049   0.00387  -0.00387   0.00387   0.00179  -0.00179   0.00000  -0.00179 ...
  -0.08265   0.01369   0.00954  -0.00954   0.00954  -0.00037   0.00037  -0.00037   0.00021  -0.00021   0.00000  -0.00021 ...
  -0.00049   0.00954   1.57928   0.00013  -0.00013  -0.38815  -0.00104   0.00104   0.00811  -0.00811  -0.01936  -0.00011 ...
   0.00049  -0.00954   0.00013   1.57928   0.00013  -0.00104  -0.38815  -0.00104  -0.00011   0.00811  -0.03872   0.00811 ...
  -0.00049   0.00954  -0.00013   0.00013   1.57928   0.00104  -0.00104  -0.38815   0.00811  -0.00011  -0.01936  -0.00811 ...
   0.00387  -0.00037  -0.38815  -0.00104   0.00104   0.10361   0.00033  -0.00033  -0.00233   0.00233  -0.00298  -0.00026 ...
  -0.00387   0.00037  -0.00104  -0.38815  -0.00104   0.00033   0.10361   0.00033  -0.00026  -0.00233  -0.00596  -0.00233 ...
   0.00387  -0.00037   0.00104  -0.00104  -0.38815  -0.00033   0.00033   0.10361  -0.00233  -0.00026  -0.00298   0.00233 ...
   0.00179   0.00021   0.00811  -0.00011   0.00811  -0.00233  -0.00026  -0.00233   0.08779   0.00101   0.00751   0.00101 ...
  -0.00179  -0.00021  -0.00811   0.00811  -0.00011   0.00233  -0.00233  -0.00026   0.00101   0.08779   0.00376  -0.00101 ...
   0.00000   0.00000  -0.01936  -0.03872  -0.01936  -0.00298  -0.00596  -0.00298   0.00751   0.00376   0.29422   0.00376 ...
  -0.00179  -0.00021  -0.00011   0.00811  -0.00811  -0.00026  -0.00233   0.00233   0.00101  -0.00101   0.00376   0.08779 ...
   ...  only 12  components have been written...

 "PAW+U" part of augmentation waves occupancies Rhoij:
 Atom #  1 - L=2 ONLY - Spin component 1
   0.98640  -0.00034   0.00007  -0.00034   0.00000
  -0.00034   0.98640   0.00004   0.00034  -0.00006
   0.00007   0.00004   1.01207   0.00004   0.00000
  -0.00034   0.00034   0.00004   0.98640   0.00006
   0.00000  -0.00006   0.00000   0.00006   1.01207
 Atom #  1 - L=2 ONLY - Spin component 2
   0.98223  -0.00030   0.00392  -0.00030   0.00000
  -0.00030   0.98223   0.00196   0.00030  -0.00339
   0.00392   0.00196   0.14293   0.00196   0.00000
  -0.00030   0.00030   0.00196   0.98223   0.00339
   0.00000  -0.00339   0.00000   0.00339   0.14293
 Atom #  2 - L=2 ONLY - Spin component 1
   0.98223  -0.00030   0.00392  -0.00030   0.00000
  -0.00030   0.98223   0.00196   0.00030  -0.00339
   0.00392   0.00196   0.14293   0.00196   0.00000
  -0.00030   0.00030   0.00196   0.98223   0.00339
   0.00000  -0.00339   0.00000   0.00339   0.14293
 Atom #  2 - L=2 ONLY - Spin component 2
   0.98640  -0.00034   0.00007  -0.00034   0.00000
  -0.00034   0.98640   0.00004   0.00034  -0.00006
   0.00007   0.00004   1.01207   0.00004   0.00000
  -0.00034   0.00034   0.00004   0.98640   0.00006
   0.00000  -0.00006   0.00000   0.00006   1.01207

---------- LDA+U DATA ---------------------------------------------------

====== For Atom    1, occupations for correlated orbitals. lpawu =   2

Atom   1. Occ. for lpawu and for spin  1 =   4.59948
Atom   1. Occ. for lpawu and for spin  2 =   2.98352
=> On atom   1,  local Mag. for lpawu is    -0.16159523E+01

== Occupation matrix for correlated orbitals:

Occupation matrix for spin  1
     0.91042   -0.00031    0.00007   -0.00031    0.00000
    -0.00031    0.91042    0.00003    0.00031   -0.00006
     0.00007    0.00003    0.93411    0.00003    0.00000
    -0.00031    0.00031    0.00003    0.91042    0.00006
     0.00000   -0.00006    0.00000    0.00006    0.93411


Occupation matrix for spin  2
     0.90656   -0.00027    0.00362   -0.00027    0.00000
    -0.00027    0.90656    0.00181    0.00027   -0.00313
     0.00362    0.00181    0.13192    0.00181    0.00000
    -0.00027    0.00027    0.00181    0.90656    0.00313
     0.00000   -0.00313    0.00000    0.00313    0.13192


====== For Atom    2, occupations for correlated orbitals. lpawu =   2

Atom   2. Occ. for lpawu and for spin  1 =   2.98352
Atom   2. Occ. for lpawu and for spin  2 =   4.59948
=> On atom   2,  local Mag. for lpawu is     0.16159523E+01

== Occupation matrix for correlated orbitals:

Occupation matrix for spin  1
     0.90656   -0.00027    0.00362   -0.00027    0.00000
    -0.00027    0.90656    0.00181    0.00027   -0.00313
     0.00362    0.00181    0.13192    0.00181    0.00000
    -0.00027    0.00027    0.00181    0.90656    0.00313
     0.00000   -0.00313    0.00000    0.00313    0.13192


Occupation matrix for spin  2
     0.91042   -0.00031    0.00007   -0.00031    0.00000
    -0.00031    0.91042    0.00003    0.00031   -0.00006
     0.00007    0.00003    0.93411    0.00003    0.00000
    -0.00031    0.00031    0.00003    0.91042    0.00006
     0.00000   -0.00006    0.00000    0.00006    0.93411



================================================================================

 ----iterations are completed or convergence reached----

 Mean square residual over all n,k,spin=   4.0335E-12; max=  1.6869E-11
   0.2500  0.2500  0.2500    1  1.07937E-11 kpt; spin; max resid(k); each band:
 7.95E-12 2.47E-12 1.32E-12 1.50E-12 1.73E-14 3.48E-13 3.17E-13 1.01E-14
 3.62E-13 4.61E-13 5.65E-12 6.00E-12 1.87E-12 5.94E-12 7.07E-12 7.04E-12
 3.64E-12 1.02E-11 5.79E-12 1.81E-12 7.33E-12 5.87E-12 3.62E-12 2.43E-12
 1.05E-11 1.08E-11 1.96E-12 1.18E-12 5.82E-13 8.35E-13
  -0.2500  0.2500  0.2500    1  1.68688E-11 kpt; spin; max resid(k); each band:
 8.04E-12 2.47E-12 3.43E-12 2.80E-12 6.19E-14 8.44E-13 9.08E-13 2.45E-13
 4.89E-13 6.93E-13 4.25E-12 5.77E-12 6.06E-12 5.57E-12 6.08E-12 7.28E-12
 9.80E-12 4.51E-12 7.02E-12 6.11E-12 3.04E-12 3.88E-12 1.14E-12 5.42E-12
 1.09E-11 1.08E-11 1.07E-12 9.51E-13 3.05E-12 1.69E-11
  -0.2500 -0.2500  0.2500    1  1.10286E-11 kpt; spin; max resid(k); each band:
 7.93E-12 2.41E-12 3.02E-13 3.49E-13 1.88E-14 8.03E-14 1.11E-13 9.13E-15
 3.51E-13 4.75E-13 5.73E-12 6.10E-12 3.91E-12 3.31E-12 6.45E-12 5.34E-12
 2.53E-12 9.73E-12 8.84E-12 6.76E-12 7.99E-12 9.86E-13 8.74E-13 2.00E-12
 1.05E-11 1.10E-11 9.78E-13 1.41E-12 1.18E-12 9.20E-13
 reduced coordinates (array xred) for    4 atoms
       0.000000000000      0.000000000000      0.000000000000
       0.000000000000      0.000000000000      0.500000000000
       0.500000000000      0.500000000000      0.250000000000
       0.500000000000      0.500000000000      0.750000000000
 rms dE/dt=  6.0727E-31; max dE/dt=  2.1036E-30; dE/dt below (all hartree)
    1       0.000000000000      0.000000000000      0.000000000000
    2       0.000000000000      0.000000000000      0.000000000000
    3       0.000000000000      0.000000000000      0.000000000000
    4       0.000000000000      0.000000000000      0.000000000000

 cartesian coordinates (angstrom) at end:
    1      0.00000000000000     0.00000000000000     0.00000000000000
    2      2.09554174601640     2.09554174601640     0.00000000000000
    3      2.09554174601640     2.09554174601640     2.09554174601640
    4      4.19108349203280     4.19108349203280     2.09554174601640

 cartesian forces (hartree/bohr) at end:
    1     -0.00000000000000    -0.00000000000000     0.00000000000000
    2      0.00000000000000     0.00000000000000    -0.00000000000000
    3      0.00000000000000     0.00000000000000    -0.00000000000000
    4      0.00000000000000     0.00000000000000    -0.00000000000000
 frms,max,avg= 5.7506194E-32 9.9603650E-32   0.000E+00  0.000E+00  0.000E+00 h/b

 cartesian forces (eV/Angstrom) at end:
    1     -0.00000000000000    -0.00000000000000     0.00000000000000
    2      0.00000000000000     0.00000000000000    -0.00000000000000
    3      0.00000000000000     0.00000000000000    -0.00000000000000
    4      0.00000000000000     0.00000000000000    -0.00000000000000
 frms,max,avg= 2.9570871E-30 5.1218252E-30   0.000E+00  0.000E+00  0.000E+00 e/A
 length scales=  7.920000000000  7.920000000000  7.920000000000 bohr
              =  4.191083492033  4.191083492033  4.191083492033 angstroms
 prteigrs : about to open file t11o_EIG
 Fermi (or HOMO) energy (hartree) =   0.18535   Average Vxc (hartree)=  -0.52402
 Eigenvalues (hartree) for nkpt=   3  k points:
 kpt#   1, nband= 30, wtk=  0.25000, kpt=  0.2500  0.2500  0.2500 (reduced coord)
  -3.55262  -3.48498  -2.17286  -2.17093  -2.16801  -2.10754  -2.10530  -2.10291
  -0.47499  -0.43811  -0.07244  -0.06586  -0.04250  -0.01673   0.00689   0.00761
   0.01500   0.03660   0.06873   0.08094   0.10736   0.11082   0.14690   0.15961
   0.29230   0.30685   0.40850   0.56613   0.58399   0.67434
      occupation numbers for kpt#   1
   2.00000   2.00000   2.00000   2.00000   2.00000   2.00000   2.00000   2.00000
   2.00000   2.00000   2.00000   2.00000   2.00000   2.00000   2.00000   2.00000
   2.00000   2.00000   2.00000   2.00000   2.00000   2.00000   2.00000   2.00000
   0.00000   0.00000   0.00000   0.00000   0.00000   0.00000
 kpt#   2, nband= 30, wtk=  0.50000, kpt= -0.2500  0.2500  0.2500 (reduced coord)
  -3.55321  -3.48557  -2.17449  -2.17205  -2.17137  -2.10912  -2.10643  -2.10612
  -0.44500  -0.43732  -0.07306  -0.06006  -0.03819  -0.03023  -0.01218   0.00131
   0.02542   0.02828   0.06933   0.07573   0.08036   0.09937   0.13072   0.13902
   0.29490   0.31165   0.50642   0.54327   0.62310   0.62880
      occupation numbers for kpt#   2
   2.00000   2.00000   2.00000   2.00000   2.00000   2.00000   2.00000   2.00000
   2.00000   2.00000   2.00000   2.00000   2.00000   2.00000   2.00000   2.00000
   2.00000   2.00000   2.00000   2.00000   2.00000   2.00000   2.00000   2.00000
   0.00000   0.00000   0.00000   0.00000   0.00000   0.00000
 kpt#   3, nband= 30, wtk=  0.25000, kpt= -0.2500 -0.2500  0.2500 (reduced coord)
  -3.55291  -3.48528  -2.17327  -2.17210  -2.16929  -2.10755  -2.10675  -2.10412
  -0.46107  -0.45330  -0.07291  -0.06841  -0.03275  -0.01986   0.00511   0.00634
   0.01123   0.03074   0.05451   0.08168   0.11199   0.11974   0.14664   0.15623
   0.29151   0.30953   0.44312   0.47589   0.67192   0.68173
      occupation numbers for kpt#   3
   2.00000   2.00000   2.00000   2.00000   2.00000   2.00000   2.00000   2.00000
   2.00000   2.00000   2.00000   2.00000   2.00000   2.00000   2.00000   2.00000
   2.00000   2.00000   2.00000   2.00000   2.00000   2.00000   2.00000   2.00000
   0.00000   0.00000   0.00000   0.00000   0.00000   0.00000
 Total charge density [el/Bohr^3]
,     Maximum=    2.0294E+00  at reduced coord.    0.0000    0.0000    0.5000
,Next maximum=    2.0294E+00  at reduced coord.    0.0000    0.0000    0.0000
,     Minimum=    1.0017E-02  at reduced coord.    0.2500    0.2500    0.1250
,Next minimum=    1.0017E-02  at reduced coord.    0.7500    0.7500    0.3750
 Spin up density      [el/Bohr^3]
,     Maximum=    1.0877E+00  at reduced coord.    0.0000    0.0000    0.0000
,Next maximum=    1.0565E+00  at reduced coord.    0.0000    0.0417    0.9792
,     Minimum=    4.9412E-03  at reduced coord.    0.2500    0.2500    0.1250
,Next minimum=    4.9412E-03  at reduced coord.    0.7500    0.7500    0.8750
 Spin down density    [el/Bohr^3]
,     Maximum=    1.0877E+00  at reduced coord.    0.0000    0.0000    0.5000
,Next maximum=    1.0565E+00  at reduced coord.    0.0000    0.9583    0.5208
,     Minimum=    4.9412E-03  at reduced coord.    0.7500    0.7500    0.3750
,Next minimum=    4.9412E-03  at reduced coord.    0.2500    0.2500    0.6250
 Magnetization (spin up - spin down) [el/Bohr^3]
,     Maximum=    1.6166E-01  at reduced coord.    0.1250    0.8750    0.9375
,Next maximum=    1.6166E-01  at reduced coord.    0.8750    0.1250    0.9375
,     Minimum=   -1.6166E-01  at reduced coord.    0.1250    0.1250    0.4375
,Next minimum=   -1.6166E-01  at reduced coord.    0.8750    0.1250    0.4375
 Relative magnetization (=zeta, between -1 and 1)
,     Maximum=    2.0147E-01  at reduced coord.    0.1667    0.8333    0.9167
,Next maximum=    2.0147E-01  at reduced coord.    0.8333    0.1667    0.9167
,     Minimum=   -2.0147E-01  at reduced coord.    0.1667    0.1667    0.4167
,Next minimum=   -2.0147E-01  at reduced coord.    0.8333    0.1667    0.4167

--------------------------------------------------------------------------------
 Components of total free energy (in Hartree) :

    Kinetic energy  =  4.49849629009943E+01
    Hartree energy  =  5.52775478291919E+01
    XC energy       = -3.21036417713348E+01
    Ewald energy    = -2.38122809319194E+02
    PspCore energy  =  2.14477051759375E+01
    Loc. psp. energy= -1.51037514743045E+02
    Spherical terms = -7.24316031246004E+01
    >>>>> Internal E= -3.71985353052050E+02

    -kT*entropy     = -2.15716704349709E-15
    >>>>>>>>> Etotal= -3.71985353052050E+02

 "Double-counting" decomposition of free energy:
    Band energy     = -4.05701979643700E+01
    Ewald energy    = -2.38122809319194E+02
    PspCore energy  =  2.14477051759375E+01
    Dble-C XC-energy= -4.52336735616956E+01
    Spherical terms = -6.95063798454457E+01
    >>>>> Internal E= -3.71985355514768E+02

    -kT*entropy     = -2.15716704349709E-15
    >>>> Etotal (DC)= -3.71985355514768E+02

  >Total energy in eV           = -1.01222362321970E+04
  >Total DC energy in eV        = -1.01222362992109E+04
--------------------------------------------------------------------------------

 Cartesian components of stress tensor (hartree/bohr^3)
  sigma(1 1)=  1.23453407E-02  sigma(3 2)=  2.88645633E-05
  sigma(2 2)=  1.23453407E-02  sigma(3 1)=  2.88645633E-05
  sigma(3 3)=  1.23453407E-02  sigma(2 1)= -2.88645633E-05

-Cartesian components of stress tensor (GPa)         [Pressure= -3.6321E+02 GPa]
- sigma(1 1)=  3.63212403E+02  sigma(3 2)=  8.49224628E-01
- sigma(2 2)=  3.63212403E+02  sigma(3 1)=  8.49224628E-01
- sigma(3 3)=  3.63212403E+02  sigma(2 1)= -8.49224628E-01

== END DATASET(S) ==============================================================
================================================================================
  
 -outvars: echo values of variables after computation  --------
     acell    7.9200000000E+00  7.9200000000E+00  7.9200000000E+00 Bohr
       amu    5.86900000E+01  1.59994000E+01
    diemix    9.00000000E-01
      ecut    1.00000000E+01 Hartree
    etotal   -3.7198535551E+02
     fcart   -9.9603649649E-32 -9.9603649649E-32  9.9603649649E-32
              3.3201216550E-32  3.3201216550E-32 -3.3201216550E-32
              3.3201216550E-32  3.3201216550E-32 -3.3201216550E-32
              3.3201216550E-32  3.3201216550E-32 -3.3201216550E-32
       ixc         7
       kpt    2.50000000E-01  2.50000000E-01  2.50000000E-01
             -2.50000000E-01  2.50000000E-01  2.50000000E-01
             -2.50000000E-01 -2.50000000E-01  2.50000000E-01
   kptrlen    1.12005714E+01
    kptopt         1
  kptrlatt    2  0  0   0  2  0   0  0  2
P    mkmem         3
     natom         4
  npulayit         5
     nband        30
     ngfft        16      16      32
   ngfftdg        24      24      48
      nkpt         3
    nspden         2
     nstep        40
      nsym        24
    ntypat         2
       occ    2.000000  2.000000  2.000000  2.000000  2.000000  2.000000
              2.000000  2.000000  2.000000  2.000000  2.000000  2.000000
              2.000000  2.000000  2.000000  2.000000  2.000000  2.000000
              2.000000  2.000000  2.000000  2.000000  2.000000  2.000000
              0.000000  0.000000  0.000000  0.000000  0.000000  0.000000
              2.000000  2.000000  2.000000  2.000000  2.000000  2.000000
              2.000000  2.000000  2.000000  2.000000  2.000000  2.000000
              2.000000  2.000000  2.000000  2.000000  2.000000  2.000000
              2.000000  2.000000  2.000000  2.000000  2.000000  2.000000
              0.000000  0.000000  0.000000  0.000000  0.000000  0.000000
              2.000000  2.000000  2.000000  2.000000  2.000000  2.000000
              2.000000  2.000000  2.000000  2.000000  2.000000  2.000000
              2.000000  2.000000  2.000000  2.000000  2.000000  2.000000
              2.000000  2.000000  2.000000  2.000000  2.000000  2.000000
              0.000000  0.000000  0.000000  0.000000  0.000000  0.000000
    occopt         7
 optforces         2
 pawecutdg    2.00000000E+01 Hartree
 pawsphmix    9.0000000000E-01
 dmatpuopt         1
 usedmatpu        10
   usepawu         1
     jpawu    3.50000000E-02  0.00000000E+00
     lpawu         2      -1
     upawu    3.00000000E-01  0.00000000E+00
  dmatpawu    1.00000000E+00  0.00000000E+00  0.00000000E+00
              0.00000000E+00  0.00000000E+00  0.00000000E+00
              1.00000000E+00  0.00000000E+00  0.00000000E+00
              0.00000000E+00  0.00000000E+00  0.00000000E+00
              1.00000000E+00  0.00000000E+00  0.00000000E+00
              0.00000000E+00  0.00000000E+00  0.00000000E+00
              1.00000000E+00  0.00000000E+00  0.00000000E+00
              0.00000000E+00  0.00000000E+00  0.00000000E+00
              1.00000000E+00  1.00000000E+00  0.00000000E+00
              0.00000000E+00  0.00000000E+00  0.00000000E+00
              0.00000000E+00  1.00000000E+00  0.00000000E+00
              0.00000000E+00  0.00000000E+00  0.00000000E+00
              0.00000000E+00  0.00000000E+00  0.00000000E+00
              0.00000000E+00  0.00000000E+00  0.00000000E+00
              0.00000000E+00  1.00000000E+00  0.00000000E+00
              0.00000000E+00  0.00000000E+00  0.00000000E+00
              0.00000000E+00  0.00000000E+00
 prtdensph         1
    ratsph    2.30000000E+00  2.30000000E+00 Bohr
     rprim    0.0000000000E+00  5.0000000000E-01  5.0000000000E-01
              5.0000000000E-01  0.0000000000E+00  5.0000000000E-01
              1.0000000000E+00  1.0000000000E+00  0.0000000000E+00
    shiftk    5.00000000E-01  5.00000000E-01  5.00000000E-01
   spgroup       166
    spinat    0.0000000000E+00  0.0000000000E+00  1.0000000000E+00
              0.0000000000E+00  0.0000000000E+00 -1.0000000000E+00
              0.0000000000E+00  0.0000000000E+00  0.0000000000E+00
              0.0000000000E+00  0.0000000000E+00  0.0000000000E+00
    strten    1.2345340736E-02  1.2345340736E-02  1.2345340736E-02
              2.8864563267E-05  2.8864563267E-05 -2.8864563267E-05
    symafm    1 -1  1  -1  1 -1   1 -1  1      -1  1 -1   1 -1  1  -1  1 -1
              1 -1  1  -1  1 -1
    symrel    1  0  0   0  1  0   0  0  1       1  0  0   0  1  0   0  0  1
             -1  0  0   0 -1  0   0  0 -1      -1  0  0   0 -1  0   0  0 -1
              0  1  0   1  0  0   0  0  1       0  1  0   1  0  0   0  0  1
              0 -1  0  -1  0  0   0  0 -1       0 -1  0  -1  0  0   0  0 -1
              0 -1  0   1 -1  0   0 -2  1       0 -1  0   1 -1  0   0 -2  1
              0  1  0  -1  1  0   0  2 -1       0  1  0  -1  1  0   0  2 -1
              1 -1  0   0 -1  0   0 -2  1       1 -1  0   0 -1  0   0 -2  1
             -1  1  0   0  1  0   0  2 -1      -1  1  0   0  1  0   0  2 -1
             -1  1  0  -1  0  0  -2  0  1      -1  1  0  -1  0  0  -2  0  1
              1 -1  0   1  0  0   2  0 -1       1 -1  0   1  0  0   2  0 -1
             -1  0  0  -1  1  0  -2  0  1      -1  0  0  -1  1  0  -2  0  1
              1  0  0   1 -1  0   2  0 -1       1  0  0   1 -1  0   2  0 -1
     tnons    0.0000000  0.0000000  0.0000000     0.0000000  0.0000000  0.5000000
              0.0000000  0.0000000  0.0000000     0.0000000  0.0000000  0.5000000
              0.0000000  0.0000000  0.0000000     0.0000000  0.0000000  0.5000000
              0.0000000  0.0000000  0.0000000     0.0000000  0.0000000  0.5000000
              0.0000000  0.0000000  0.0000000     0.0000000  0.0000000  0.5000000
              0.0000000  0.0000000  0.0000000     0.0000000  0.0000000  0.5000000
              0.0000000  0.0000000  0.0000000     0.0000000  0.0000000  0.5000000
              0.0000000  0.0000000  0.0000000     0.0000000  0.0000000  0.5000000
              0.0000000  0.0000000  0.0000000     0.0000000  0.0000000  0.5000000
              0.0000000  0.0000000  0.0000000     0.0000000  0.0000000  0.5000000
              0.0000000  0.0000000  0.0000000     0.0000000  0.0000000  0.5000000
              0.0000000  0.0000000  0.0000000     0.0000000  0.0000000  0.5000000
    tolvrs    1.00000000E-08
    tsmear    5.00000000E-03 Hartree
     typat    1  1  2  2
    useylm         1
       wtk      0.25000    0.50000    0.25000
    xangst    0.0000000000E+00  0.0000000000E+00  0.0000000000E+00
              2.0955417460E+00  2.0955417460E+00  0.0000000000E+00
              2.0955417460E+00  2.0955417460E+00  2.0955417460E+00
              4.1910834920E+00  4.1910834920E+00  2.0955417460E+00
     xcart    0.0000000000E+00  0.0000000000E+00  0.0000000000E+00
              3.9600000000E+00  3.9600000000E+00  0.0000000000E+00
              3.9600000000E+00  3.9600000000E+00  3.9600000000E+00
              7.9200000000E+00  7.9200000000E+00  3.9600000000E+00
      xred    0.0000000000E+00  0.0000000000E+00  0.0000000000E+00
              0.0000000000E+00  0.0000000000E+00  5.0000000000E-01
              5.0000000000E-01  5.0000000000E-01  2.5000000000E-01
              5.0000000000E-01  5.0000000000E-01  7.5000000000E-01
     znucl     28.00000    8.00000

================================================================================

- Total cpu        time (s,m,h):         17.6        0.29      0.005
- Total wall clock time (s,m,h):         17.6        0.29      0.005

- For major independent code sections, cpu and wall times (sec),
- as well as % of the total time and number of calls 

- routine                 cpu     %       wall     %      number of calls 
-                                                          (-1=no count)
- fourwf(pot)            4.675  26.6      4.646  26.5          12064
- nonlop(apply)          3.207  18.3      3.212  18.3          12064
- pspini                 1.901  10.8      1.900  10.8              1
- xc:pot/=fourdp         0.914   5.2      0.917   5.2            255
- projbd                 0.832   4.7      0.852   4.9           9364
- vtowfk(ssdiag)         0.829   4.7      0.838   4.8             -1
- vtorho:mknhat          0.663   3.8      0.667   3.8             28
- pawdenpot              0.573   3.3      0.579   3.3             28
- timing timab           0.509   2.9      0.511   2.9             12
- fourwf(den)            0.437   2.5      0.449   2.6           2016
- fourdp                 0.359   2.0      0.364   2.1            504
- vtorho(4)-mkrho-       0.319   1.8      0.312   1.8             84
- vtowfk(contrib)        0.294   1.7      0.292   1.7             84
- pawinit                0.244   1.4      0.244   1.4              2
- pawdij                 0.194   1.1      0.194   1.1             28
- vtorho:rhoij           0.172   1.0      0.173   1.0             28
- getghc-other           0.169   1.0      0.221   1.3             -1
- vtorho:ntild+nha       0.169   1.0      0.169   1.0             28
- invars2                0.122   0.7      0.122   0.7              1
- vtorho  (1)            0.107   0.6      0.108   0.6             28
- nhatgrid               0.100   0.6      0.102   0.6              2
- symrhg(no FFT)         0.099   0.6      0.099   0.6             84
- 48   others            0.262   1.5      0.244   1.4

- subtotal              17.150  97.7     17.215  98.0

================================================================================

 Calculation completed.
.Delivered    4 WARNINGs and   0 COMMENTs to log file.
+Overall time at end (sec) : cpu=         17.6  wall=         17.6
