
.Version 5.6.3  of ABINIT 
.(sequential version, prepared for a x86_64_linux_gcc4.3 computer) 

.Copyright (C) 1998-2008 ABINIT group . 
 ABINIT comes with ABSOLUTELY NO WARRANTY.
 It is free software, and you are welcome to redistribute it
 under certain conditions (GNU General Public License,
 see ~abinit/COPYING or http://www.gnu.org/copyleft/gpl.txt).

 ABINIT is a project of the Universite Catholique de Louvain,
 Corning Inc. and other collaborators, see ~abinit/doc/developers/contributors.txt .
 Please read ~abinit/doc/users/acknowledgments.html for suggested
 acknowledgments of the ABINIT effort.
 For more information, see http://www.abinit.org .

.Starting date : Thu  6 Nov 2008.
  
- input  file    -> /home/gonze/ABINIT/ABINITv5.6.3/test_gcc43/5.6.3-private/tests/v5/Input/t18.in
- output file    -> t18.out
- root for input  files -> t18i
- root for output files -> t18o


 Magnetic group, Shubnikov type IV
 Fedorov space group R-3 m (#166)
 Magnetic Bravais lattice hR_I (rhombohedral, centered magnetic, #31)
================================================================================
 Values of the parameters that define the memory need of the present run
   intxc =         0  ionmov =         0    iscf =        17 xclevel =         2
  lmnmax =        18   lnmax =         6   mband =        30  mffmem =         1
P  mgfft =        24   mkmem =        20 mpssoang=         3     mpw =       103
  mqgrid =      3001   natom =         4    nfft =      3456    nkpt =        20
  nloalg =         4  nspden =         2 nspinor =         1  nsppol =         1
    nsym =        24  n1xccc =         1  ntypat =         2  occopt =         1
 PAW method is used; the additional fine FFT grid is defined by:
   mgfftf=        32    nfftf =      8192
================================================================================
P This job should need less than                      10.170 Mbytes of memory.
  Rough estimation (10% accuracy) of disk space for files :
  WF disk file :      0.945 Mbytes ; DEN or POT disk file :      0.065 Mbytes.
================================================================================

 -outvars: echo values of preprocessed input variables --------
     acell    7.9200000000E+00  7.9200000000E+00  7.9200000000E+00 Bohr
       amu    5.86900000E+01  1.59994000E+01
      ecut    4.00000000E+00 Hartree
       ixc        11
       kpt    1.25000000E-01  1.25000000E-01  1.25000000E-01
              3.75000000E-01  1.25000000E-01  1.25000000E-01
             -3.75000000E-01  1.25000000E-01  1.25000000E-01
             -1.25000000E-01  1.25000000E-01  1.25000000E-01
              3.75000000E-01  3.75000000E-01  1.25000000E-01
             -3.75000000E-01  3.75000000E-01  1.25000000E-01
             -1.25000000E-01  3.75000000E-01  1.25000000E-01
             -3.75000000E-01 -3.75000000E-01  1.25000000E-01
             -1.25000000E-01 -3.75000000E-01  1.25000000E-01
             -1.25000000E-01 -1.25000000E-01  1.25000000E-01
              1.25000000E-01  1.25000000E-01  3.75000000E-01
              3.75000000E-01  1.25000000E-01  3.75000000E-01
             -3.75000000E-01  1.25000000E-01  3.75000000E-01
             -1.25000000E-01  1.25000000E-01  3.75000000E-01
              3.75000000E-01  3.75000000E-01  3.75000000E-01
             -3.75000000E-01  3.75000000E-01  3.75000000E-01
             -1.25000000E-01  3.75000000E-01  3.75000000E-01
             -3.75000000E-01 -3.75000000E-01  3.75000000E-01
             -1.25000000E-01 -3.75000000E-01  3.75000000E-01
             -1.25000000E-01 -1.25000000E-01  3.75000000E-01
   kptrlen    2.24011428E+01
    kptopt         1
  kptrlatt    4  0  0   0  4  0   0  0  4
P    mkmem        20
     natom         4
     nband        30
     ngfft        12      12      24
   ngfftdg        16      16      32
      nkpt        20
    nspden         2
     nstep        70
      nsym        24
    ntypat         2
       occ    2.000000  2.000000  2.000000  2.000000  2.000000  2.000000
              2.000000  2.000000  2.000000  2.000000  2.000000  2.000000
              2.000000  2.000000  2.000000  2.000000  0.000000  0.000000
              0.000000  0.000000  0.000000  0.000000  0.000000  0.000000
              0.000000  0.000000  0.000000  0.000000  0.000000  0.000000
 pawecutdg    1.00000000E+01 Hartree
 useexexch         1
   lexexch         2      -1
 prtdensph         1
    ratsph    2.31080032E+00  1.11262345E+00 Bohr
     rprim    0.0000000000E+00  5.0000000000E-01  5.0000000000E-01
              5.0000000000E-01  0.0000000000E+00  5.0000000000E-01
              1.0000000000E+00  1.0000000000E+00  0.0000000000E+00
    shiftk    5.00000000E-01  5.00000000E-01  5.00000000E-01
   spgroup       166
    spinat    0.0000000000E+00  0.0000000000E+00  1.0000000000E+00
              0.0000000000E+00  0.0000000000E+00 -1.0000000000E+00
              0.0000000000E+00  0.0000000000E+00  0.0000000000E+00
              0.0000000000E+00  0.0000000000E+00  0.0000000000E+00
    symafm    1 -1  1  -1  1 -1   1 -1  1      -1  1 -1   1 -1  1  -1  1 -1
              1 -1  1  -1  1 -1
    symrel    1  0  0   0  1  0   0  0  1       1  0  0   0  1  0   0  0  1
             -1  0  0   0 -1  0   0  0 -1      -1  0  0   0 -1  0   0  0 -1
              0  1  0   1  0  0   0  0  1       0  1  0   1  0  0   0  0  1
              0 -1  0  -1  0  0   0  0 -1       0 -1  0  -1  0  0   0  0 -1
              0 -1  0   1 -1  0   0 -2  1       0 -1  0   1 -1  0   0 -2  1
              0  1  0  -1  1  0   0  2 -1       0  1  0  -1  1  0   0  2 -1
              1 -1  0   0 -1  0   0 -2  1       1 -1  0   0 -1  0   0 -2  1
             -1  1  0   0  1  0   0  2 -1      -1  1  0   0  1  0   0  2 -1
             -1  1  0  -1  0  0  -2  0  1      -1  1  0  -1  0  0  -2  0  1
              1 -1  0   1  0  0   2  0 -1       1 -1  0   1  0  0   2  0 -1
             -1  0  0  -1  1  0  -2  0  1      -1  0  0  -1  1  0  -2  0  1
              1  0  0   1 -1  0   2  0 -1       1  0  0   1 -1  0   2  0 -1
     tnons    0.0000000  0.0000000  0.0000000     0.0000000  0.0000000  0.5000000
              0.0000000  0.0000000  0.0000000     0.0000000  0.0000000  0.5000000
              0.0000000  0.0000000  0.0000000     0.0000000  0.0000000  0.5000000
              0.0000000  0.0000000  0.0000000     0.0000000  0.0000000  0.5000000
              0.0000000  0.0000000  0.0000000     0.0000000  0.0000000  0.5000000
              0.0000000  0.0000000  0.0000000     0.0000000  0.0000000  0.5000000
              0.0000000  0.0000000  0.0000000     0.0000000  0.0000000  0.5000000
              0.0000000  0.0000000  0.0000000     0.0000000  0.0000000  0.5000000
              0.0000000  0.0000000  0.0000000     0.0000000  0.0000000  0.5000000
              0.0000000  0.0000000  0.0000000     0.0000000  0.0000000  0.5000000
              0.0000000  0.0000000  0.0000000     0.0000000  0.0000000  0.5000000
              0.0000000  0.0000000  0.0000000     0.0000000  0.0000000  0.5000000
    toldfe    1.00000000E-08 Hartree
     typat    1  1  2  2
    useylm         1
       wtk      0.03125    0.06250    0.06250    0.06250    0.03125    0.06250
                0.06250    0.03125    0.06250    0.03125    0.03125    0.06250
                0.06250    0.06250    0.03125    0.06250    0.06250    0.03125
                0.06250    0.03125
    xangst    0.0000000000E+00  0.0000000000E+00  0.0000000000E+00
              2.0955417460E+00  2.0955417460E+00  0.0000000000E+00
              2.0955417460E+00  2.0955417460E+00  2.0955417460E+00
              4.1910834920E+00  4.1910834920E+00  2.0955417460E+00
     xcart    0.0000000000E+00  0.0000000000E+00  0.0000000000E+00
              3.9600000000E+00  3.9600000000E+00  0.0000000000E+00
              3.9600000000E+00  3.9600000000E+00  3.9600000000E+00
              7.9200000000E+00  7.9200000000E+00  3.9600000000E+00
      xred    0.0000000000E+00  0.0000000000E+00  0.0000000000E+00
              0.0000000000E+00  0.0000000000E+00  5.0000000000E-01
              5.0000000000E-01  5.0000000000E-01  2.5000000000E-01
              5.0000000000E-01  5.0000000000E-01  7.5000000000E-01
     znucl     28.00000    8.00000

================================================================================

 chkinp: Checking input parameters for consistency.

================================================================================
== DATASET  1 ==================================================================

 Real(R)+Recip(G) space primitive vectors, cartesian coordinates (Bohr,Bohr^-1):
 R(1)=  0.0000000  3.9600000  3.9600000  G(1)= -0.1262626  0.1262626  0.1262626
 R(2)=  3.9600000  0.0000000  3.9600000  G(2)=  0.1262626 -0.1262626  0.1262626
 R(3)=  7.9200000  7.9200000  0.0000000  G(3)=  0.0631313  0.0631313 -0.0631313
 Unit cell volume ucvol=  2.4839654E+02 bohr^3
 Angles (23,13,12)=  6.00000000E+01  6.00000000E+01  6.00000000E+01 degrees

 Coarse grid specifications (used for wave-functions):

 getcut: wavevector=  0.0000  0.0000  0.0000  ngfft=  12  12  24
         ecut(hartree)=      4.000   => boxcut(ratio)=   2.37999

 getcut : COMMENT -
  Note that boxcut > 2.2 ; recall that boxcut=Gcut(box)/Gcut(sphere) = 2
  is sufficient for exact treatment of convolution.
  Such a large boxcut is a waste : you could raise ecut
  e.g. ecut=    5.664374 Hartrees makes boxcut=2


 Fine grid specifications (used for densities):

 getcut: wavevector=  0.0000  0.0000  0.0000  ngfft=  16  16  32
         ecut(hartree)=     10.000   => boxcut(ratio)=   2.00699

--- Pseudopotential description ------------------------------------------------
- pspini: atom type   1  psp file is /home/gonze/ABINIT/ABINITv5.6.3/test_gcc43/5.6.3-private/tests/Psps_for_tests/28ni-gga.paw
- pspatm: opening atomic psp file    /home/gonze/ABINIT/ABINITv5.6.3/test_gcc43/5.6.3-private/tests/Psps_for_tests/28ni-gga.paw
 Paw atomic data for element Ni - Generated by AtomPAW (N. Holzwarth) + AtomPAW2Abinit v3.1.1
  28.00000  10.00000  20070601                znucl, zion, pspdat
    7   11    2    0      1080   0.00000      pspcod,pspxc,lmax,lloc,mmax,r2well
 Pseudopotential format is: paw3
 basis_size (lnmax)=  6 (lmn_size= 18), orbitals=   0   0   1   1   2   2
 Spheres core radius: rc_sph= 2.31080032
 4 radial meshes are used:
  - mesh 1: r(i)=AA*[exp(BB*(i-1))-1], size=1080 , AA= 0.29784E-03 BB= 0.83395E-02
  - mesh 2: r(i)=AA*[exp(BB*(i-1))-1], size=1075 , AA= 0.29784E-03 BB= 0.83395E-02
  - mesh 3: r(i)=AA*[exp(BB*(i-1))-1], size=1165 , AA= 0.29784E-03 BB= 0.83395E-02
  - mesh 4: r(i)=AA*[exp(BB*(i-1))-1], size=1250 , AA= 0.29784E-03 BB= 0.83395E-02
 Shapefunction is BESSEL type: shapef(r,l)=aa(1,l)*jl(q(1,l)*r)+aa(2,l)*jl(q(2,l)*r)
 Radius for shape functions =  2.00531667
 Radial grid used for partial waves is grid 1
 Radial grid used for projectors is grid 2
 Radial grid used for (t)core density is grid 3
 Radial grid used for Vloc is grid 4
 pspatm: atomic psp has been read  and splines computed

- pspini: atom type   2  psp file is /home/gonze/ABINIT/ABINITv5.6.3/test_gcc43/5.6.3-private/tests/Psps_for_tests/08o-gga.paw
- pspatm: opening atomic psp file    /home/gonze/ABINIT/ABINITv5.6.3/test_gcc43/5.6.3-private/tests/Psps_for_tests/08o-gga.paw
 oxygen - PAW data extracted from US-psp (D.Vanderbilt) - generated by USpp2Abinit v2.2.1
   8.00000   6.00000  20070614                znucl, zion, pspdat
    7   11    1    0       489   0.00000      pspcod,pspxc,lmax,lloc,mmax,r2well
 Pseudopotential format is: paw3
 basis_size (lnmax)=  4 (lmn_size=  8), orbitals=   0   0   1   1
 Spheres core radius: rc_sph= 1.11262345
 4 radial meshes are used:
  - mesh 1: r(i)=AA*[exp(BB*(i-1))-1], size= 489 , AA= 0.30984E-03 BB= 0.16949E-01
  - mesh 2: r(i)=AA*[exp(BB*(i-1))-1], size= 548 , AA= 0.30984E-03 BB= 0.16949E-01
  - mesh 3: r(i)=AA*[exp(BB*(i-1))-1], size= 506 , AA= 0.30984E-03 BB= 0.16949E-01
  - mesh 4: r(i)=AA*[exp(BB*(i-1))-1], size= 613 , AA= 0.30984E-03 BB= 0.16949E-01
 Shapefunction is BESSEL type: shapef(r,l)=aa(1,l)*jl(q(1,l)*r)+aa(2,l)*jl(q(2,l)*r)
 Radius for shape functions = sphere core radius
 Radial grid used for partial waves is grid 1
 Radial grid used for projectors is grid 2
 Radial grid used for (t)core density is grid 3
 Radial grid used for Vloc is grid 4
 pspatm: atomic psp has been read  and splines computed

   9.20677178E+02                                ecore*ucvol(ha*bohr**3)
--------------------------------------------------------------------------------

P newkpt: treating     30 bands with npw=     102 for ikpt=   1
P newkpt: treating     30 bands with npw=      95 for ikpt=   2
P newkpt: treating     30 bands with npw=      90 for ikpt=   3
P newkpt: treating     30 bands with npw=      97 for ikpt=   4
P newkpt: treating     30 bands with npw=      93 for ikpt=   5
P newkpt: treating     30 bands with npw=      95 for ikpt=   6
P newkpt: treating     30 bands with npw=      94 for ikpt=   7
P newkpt: treating     30 bands with npw=      90 for ikpt=   8
P newkpt: treating     30 bands with npw=      96 for ikpt=   9
P newkpt: treating     30 bands with npw=      97 for ikpt=  10
P newkpt: treating     30 bands with npw=     103 for ikpt=  11
P newkpt: treating     30 bands with npw=      97 for ikpt=  12
P newkpt: treating     30 bands with npw=      92 for ikpt=  13
P newkpt: treating     30 bands with npw=      96 for ikpt=  14
P newkpt: treating     30 bands with npw=      98 for ikpt=  15
P newkpt: treating     30 bands with npw=      95 for ikpt=  16
P newkpt: treating     30 bands with npw=      94 for ikpt=  17
P newkpt: treating     30 bands with npw=      91 for ikpt=  18
P newkpt: treating     30 bands with npw=      94 for ikpt=  19
P newkpt: treating     30 bands with npw=     100 for ikpt=  20

 setup2: Arith. and geom. avg. npw (full set) are      95.125      95.078


******************************************
 PAW Local Exact exchange: PBE0
******************************************

================================================================================

     iter   Etot(hartree)      deltaE(h)  residm     nres2    diffor    maxfor
 ETOT  1  -104.68701969419    -1.047E+02 6.274E-01 6.682E+01 0.000E+00 0.000E+00
 ETOT  2  -96.517789787129     8.169E+00 8.277E-03 3.291E+01 0.000E+00 0.000E+00
 ETOT  3  -96.226186851298     2.916E-01 1.807E-02 8.773E+00 0.000E+00 0.000E+00
 ETOT  4  -96.184191826653     4.200E-02 2.715E-03 8.893E-02 0.000E+00 0.000E+00
 ETOT  5  -96.191699831123    -7.508E-03 6.359E-03 5.531E-02 0.000E+00 0.000E+00
 ETOT  6  -96.176595817946     1.510E-02 2.592E-03 1.335E-02 0.000E+00 0.000E+00
 ETOT  7  -96.177423332858    -8.275E-04 1.484E-04 5.592E-03 0.000E+00 0.000E+00
 ETOT  8  -96.178474284067    -1.051E-03 9.426E-05 3.554E-03 0.000E+00 0.000E+00
 ETOT  9  -96.178181120135     2.932E-04 7.970E-05 1.284E-03 0.000E+00 0.000E+00
 ETOT 10  -96.178065204791     1.159E-04 1.034E-05 5.374E-05 0.000E+00 0.000E+00
 ETOT 11  -96.178059730915     5.474E-06 2.814E-06 1.826E-05 0.000E+00 0.000E+00
 ETOT 12  -96.178054087843     5.643E-06 1.810E-06 6.797E-06 0.000E+00 0.000E+00
 ETOT 13  -96.178042717313     1.137E-05 3.537E-07 1.082E-06 0.000E+00 0.000E+00
 ETOT 14  -96.178045015539    -2.298E-06 9.059E-08 6.342E-08 0.000E+00 0.000E+00
 ETOT 15  -96.178045699302    -6.838E-07 6.874E-08 2.884E-08 0.000E+00 0.000E+00
 ETOT 16  -96.178046500686    -8.014E-07 2.268E-08 2.030E-09 0.000E+00 0.000E+00
 ETOT 17  -96.178046709309    -2.086E-07 1.572E-08 8.105E-10 0.000E+00 0.000E+00
 ETOT 18  -96.178046796818    -8.751E-08 8.868E-09 8.768E-11 0.000E+00 0.000E+00
 ETOT 19  -96.178046838285    -4.147E-08 6.625E-09 2.089E-11 0.000E+00 0.000E+00
 ETOT 20  -96.178046829067     9.218E-09 3.737E-09 1.974E-12 0.000E+00 0.000E+00
 ETOT 21  -96.178046825013     4.054E-09 2.808E-09 9.139E-14 0.000E+00 0.000E+00

 At SCF step   21, etot is converged :
  for the second time, diff in etot=  4.054E-09 < toldfe=  1.000E-08

 Cartesian components of stress tensor (hartree/bohr^3)
  sigma(1 1)=  1.71785800E-01  sigma(3 2)=  8.70084642E-04
  sigma(2 2)=  1.71785800E-01  sigma(3 1)=  8.70084642E-04
  sigma(3 3)=  1.71785800E-01  sigma(2 1)= -8.70084642E-04


 Integrated total density in atomic spheres:
 -------------------------------------------
 Atom  Sphere radius  Integrated_up_density  Integrated_dn_density  Total(up+dn)   Diff(up-dn)
    1        2.31080             4.34039792             4.34039781    8.68079574    0.00000011
    2        2.31080             4.34039781             4.34039792    8.68079574   -0.00000011
    3        1.11262             1.09708619             1.09708619    2.19417238    0.00000000
    4        1.11262             1.09708619             1.09708619    2.19417238   -0.00000000
 Note: Diff(up-dn) can be considered as a rough approximation of a local magnetic moment.



 PAW TEST:
 ==== Compensation charge inside spheres ============
 The following values must be close to each other ...
 Compensation charge over spherical meshes =      7.471541724941910
 Compensation charge over fine fft grid    =      7.471589908454729

 ==== Results concerning PAW augmentation regions ====

 Total pseudopotential strength Dij (hartree):
 Atom #  1 - Spin component 1
   0.38845   0.03893   0.00000   0.00000   0.00000   0.00000   0.00000   0.00000   0.00022  -0.00022   0.00000  -0.00022 ...
   0.03893   9.26906   0.00000   0.00000   0.00000   0.00000   0.00000   0.00000   0.00049  -0.00049   0.00000  -0.00049 ...
   0.00000   0.00000   0.03012   0.00001  -0.00001  -0.13243   0.00020  -0.00020   0.00000   0.00000   0.00000   0.00000 ...
   0.00000   0.00000   0.00001   0.03012   0.00001   0.00020  -0.13243   0.00020   0.00000   0.00000   0.00000   0.00000 ...
   0.00000   0.00000  -0.00001   0.00001   0.03012  -0.00020   0.00020  -0.13243   0.00000   0.00000   0.00000   0.00000 ...
   0.00000   0.00000  -0.13243   0.00020  -0.00020  21.65964   0.00779  -0.00779   0.00000   0.00000   0.00000   0.00000 ...
   0.00000   0.00000   0.00020  -0.13243   0.00020   0.00779  21.65964   0.00779   0.00000   0.00000   0.00000   0.00000 ...
   0.00000   0.00000  -0.00020   0.00020  -0.13243  -0.00779   0.00779  21.65964   0.00000   0.00000   0.00000   0.00000 ...
   0.00022   0.00049   0.00000   0.00000   0.00000   0.00000   0.00000   0.00000  -0.70809   0.00021   0.00067   0.00021 ...
  -0.00022  -0.00049   0.00000   0.00000   0.00000   0.00000   0.00000   0.00000   0.00021  -0.70809   0.00034  -0.00021 ...
   0.00000   0.00000   0.00000   0.00000   0.00000   0.00000   0.00000   0.00000   0.00067   0.00034  -0.72112   0.00034 ...
  -0.00022  -0.00049   0.00000   0.00000   0.00000   0.00000   0.00000   0.00000   0.00021  -0.00021   0.00034  -0.70809 ...
   ...  only 12  components have been written...
 Atom #  1 - Spin component 2
   0.38845   0.03893   0.00000   0.00000   0.00000   0.00000   0.00000   0.00000   0.00022  -0.00022   0.00000  -0.00022 ...
   0.03893   9.26906   0.00000   0.00000   0.00000   0.00000   0.00000   0.00000   0.00049  -0.00049   0.00000  -0.00049 ...
   0.00000   0.00000   0.03012   0.00001  -0.00001  -0.13243   0.00020  -0.00020   0.00000   0.00000   0.00000   0.00000 ...
   0.00000   0.00000   0.00001   0.03012   0.00001   0.00020  -0.13243   0.00020   0.00000   0.00000   0.00000   0.00000 ...
   0.00000   0.00000  -0.00001   0.00001   0.03012  -0.00020   0.00020  -0.13243   0.00000   0.00000   0.00000   0.00000 ...
   0.00000   0.00000  -0.13243   0.00020  -0.00020  21.65964   0.00779  -0.00779   0.00000   0.00000   0.00000   0.00000 ...
   0.00000   0.00000   0.00020  -0.13243   0.00020   0.00779  21.65964   0.00779   0.00000   0.00000   0.00000   0.00000 ...
   0.00000   0.00000  -0.00020   0.00020  -0.13243  -0.00779   0.00779  21.65964   0.00000   0.00000   0.00000   0.00000 ...
   0.00022   0.00049   0.00000   0.00000   0.00000   0.00000   0.00000   0.00000  -0.70809   0.00021   0.00067   0.00021 ...
  -0.00022  -0.00049   0.00000   0.00000   0.00000   0.00000   0.00000   0.00000   0.00021  -0.70809   0.00034  -0.00021 ...
   0.00000   0.00000   0.00000   0.00000   0.00000   0.00000   0.00000   0.00000   0.00067   0.00034  -0.72112   0.00034 ...
  -0.00022  -0.00049   0.00000   0.00000   0.00000   0.00000   0.00000   0.00000   0.00021  -0.00021   0.00034  -0.70809 ...
   ...  only 12  components have been written...
 Atom #  4 - Spin component 1
   1.13865   1.81932   0.00000   0.00000   0.00000   0.00000   0.00000   0.00000
   1.81932   2.90637   0.00000   0.00000   0.00000  -0.00000   0.00000  -0.00000
   0.00000   0.00000  -0.49055  -0.00004   0.00004  -0.56202  -0.00006   0.00006
   0.00000   0.00000  -0.00004  -0.49055  -0.00004  -0.00006  -0.56202  -0.00006
   0.00000   0.00000   0.00004  -0.00004  -0.49055   0.00006  -0.00006  -0.56202
   0.00000  -0.00000  -0.56202  -0.00006   0.00006  -0.60589  -0.00008   0.00008
   0.00000   0.00000  -0.00006  -0.56202  -0.00006  -0.00008  -0.60589  -0.00008
   0.00000  -0.00000   0.00006  -0.00006  -0.56202   0.00008  -0.00008  -0.60589
 Atom #  4 - Spin component 2
   1.13865   1.81932   0.00000   0.00000   0.00000   0.00000   0.00000   0.00000
   1.81932   2.90637   0.00000   0.00000   0.00000   0.00000  -0.00000   0.00000
   0.00000   0.00000  -0.49055  -0.00004   0.00004  -0.56202  -0.00006   0.00006
   0.00000   0.00000  -0.00004  -0.49055  -0.00004  -0.00006  -0.56202  -0.00006
   0.00000   0.00000   0.00004  -0.00004  -0.49055   0.00006  -0.00006  -0.56202
   0.00000   0.00000  -0.56202  -0.00006   0.00006  -0.60589  -0.00008   0.00008
   0.00000  -0.00000  -0.00006  -0.56202  -0.00006  -0.00008  -0.60589  -0.00008
   0.00000   0.00000   0.00006  -0.00006  -0.56202   0.00008  -0.00008  -0.60589


 Augmentation waves occupancies Rhoij:
 Atom #  1 - Spin component 1
   2.51692  -0.11082   0.00000   0.00000   0.00000   0.00000   0.00000   0.00000   0.01625  -0.01625   0.00000  -0.01625 ...
  -0.11082   0.00575   0.00000   0.00000   0.00000   0.00000   0.00000   0.00000  -0.00081   0.00081   0.00000   0.00081 ...
   0.00000   0.00000   2.90878  -0.00606   0.00606  -0.01544   0.00004  -0.00004   0.00000   0.00000   0.00000   0.00000 ...
   0.00000   0.00000  -0.00606   2.90878  -0.00606   0.00004  -0.01544   0.00004   0.00000   0.00000   0.00000   0.00000 ...
   0.00000   0.00000   0.00606  -0.00606   2.90878  -0.00004   0.00004  -0.01544   0.00000   0.00000   0.00000   0.00000 ...
   0.00000   0.00000  -0.01544   0.00004  -0.00004   0.00020   0.00000  -0.00000   0.00000   0.00000   0.00000   0.00000 ...
   0.00000   0.00000   0.00004  -0.01544   0.00004   0.00000   0.00020   0.00000   0.00000   0.00000   0.00000   0.00000 ...
   0.00000   0.00000  -0.00004   0.00004  -0.01544  -0.00000   0.00000   0.00020   0.00000   0.00000   0.00000   0.00000 ...
   0.01625  -0.00081   0.00000   0.00000   0.00000   0.00000   0.00000   0.00000   1.02741   0.00437   0.00617   0.00437 ...
  -0.01625   0.00081   0.00000   0.00000   0.00000   0.00000   0.00000   0.00000   0.00437   1.02741   0.00309  -0.00437 ...
   0.00000   0.00000   0.00000   0.00000   0.00000   0.00000   0.00000   0.00000   0.00617   0.00309   1.03169   0.00309 ...
  -0.01625   0.00081   0.00000   0.00000   0.00000   0.00000   0.00000   0.00000   0.00437  -0.00437   0.00309   1.02741 ...
   ...  only 12  components have been written...
 Atom #  1 - Spin component 2
   2.51692  -0.11082   0.00000   0.00000   0.00000   0.00000   0.00000   0.00000   0.01625  -0.01625   0.00000  -0.01625 ...
  -0.11082   0.00575   0.00000   0.00000   0.00000   0.00000   0.00000   0.00000  -0.00081   0.00081   0.00000   0.00081 ...
   0.00000   0.00000   2.90878  -0.00606   0.00606  -0.01544   0.00004  -0.00004   0.00000   0.00000   0.00000   0.00000 ...
   0.00000   0.00000  -0.00606   2.90878  -0.00606   0.00004  -0.01544   0.00004   0.00000   0.00000   0.00000   0.00000 ...
   0.00000   0.00000   0.00606  -0.00606   2.90878  -0.00004   0.00004  -0.01544   0.00000   0.00000   0.00000   0.00000 ...
   0.00000   0.00000  -0.01544   0.00004  -0.00004   0.00020   0.00000  -0.00000   0.00000   0.00000   0.00000   0.00000 ...
   0.00000   0.00000   0.00004  -0.01544   0.00004   0.00000   0.00020   0.00000   0.00000   0.00000   0.00000   0.00000 ...
   0.00000   0.00000  -0.00004   0.00004  -0.01544  -0.00000   0.00000   0.00020   0.00000   0.00000   0.00000   0.00000 ...
   0.01625  -0.00081   0.00000   0.00000   0.00000   0.00000   0.00000   0.00000   1.02741   0.00437   0.00617   0.00437 ...
  -0.01625   0.00081   0.00000   0.00000   0.00000   0.00000   0.00000   0.00000   0.00437   1.02741   0.00309  -0.00437 ...
   0.00000   0.00000   0.00000   0.00000   0.00000   0.00000   0.00000   0.00000   0.00617   0.00309   1.03169   0.00309 ...
  -0.01625   0.00081   0.00000   0.00000   0.00000   0.00000   0.00000   0.00000   0.00437  -0.00437   0.00309   1.02741 ...
   ...  only 12  components have been written...
 Atom #  4 - Spin component 1
   2.59756  -0.75121  -0.00000   0.00000  -0.00000   0.00000  -0.00000   0.00000
  -0.75121   0.27822   0.00000  -0.00000   0.00000  -0.00000   0.00000  -0.00000
  -0.00000   0.00000   2.42828  -0.01130   0.01130  -1.41718   0.00689  -0.00689
   0.00000  -0.00000  -0.01130   2.42828  -0.01130   0.00689  -1.41718   0.00689
  -0.00000   0.00000   0.01130  -0.01130   2.42828  -0.00689   0.00689  -1.41718
   0.00000  -0.00000  -1.41718   0.00689  -0.00689   0.83057  -0.00422   0.00422
  -0.00000   0.00000   0.00689  -1.41718   0.00689  -0.00422   0.83057  -0.00422
   0.00000  -0.00000  -0.00689   0.00689  -1.41718   0.00422  -0.00422   0.83057
 Atom #  4 - Spin component 2
   2.59756  -0.75121   0.00000  -0.00000   0.00000  -0.00000   0.00000  -0.00000
  -0.75121   0.27822  -0.00000   0.00000  -0.00000   0.00000  -0.00000   0.00000
   0.00000  -0.00000   2.42828  -0.01130   0.01130  -1.41718   0.00689  -0.00689
  -0.00000   0.00000  -0.01130   2.42828  -0.01130   0.00689  -1.41718   0.00689
   0.00000  -0.00000   0.01130  -0.01130   2.42828  -0.00689   0.00689  -1.41718
  -0.00000   0.00000  -1.41718   0.00689  -0.00689   0.83057  -0.00422   0.00422
   0.00000  -0.00000   0.00689  -1.41718   0.00689  -0.00422   0.83057  -0.00422
  -0.00000   0.00000  -0.00689   0.00689  -1.41718   0.00422  -0.00422   0.83057

 "Local exact-exchange" part of augmentation waves occupancies Rhoij:
 Atom #  1 - L=2 ONLY - Spin component 1
   1.02741   0.00437   0.00617   0.00437   0.00000   0.05795  -0.00054  -0.00073  -0.00054   0.00000
   0.00437   1.02741   0.00309  -0.00437  -0.00535  -0.00054   0.05795  -0.00036   0.00054   0.00063
   0.00617   0.00309   1.03169   0.00309   0.00000  -0.00035  -0.00018   0.05508  -0.00018   0.00000
   0.00437  -0.00437   0.00309   1.02741   0.00535  -0.00054   0.00054  -0.00036   0.05795  -0.00063
   0.00000  -0.00535   0.00000   0.00535   1.03169   0.00000   0.00030   0.00000  -0.00030   0.05508
   0.05795  -0.00054  -0.00035  -0.00054   0.00000   0.00439  -0.00008  -0.00012  -0.00008   0.00000
  -0.00054   0.05795  -0.00018   0.00054   0.00030  -0.00008   0.00439  -0.00006   0.00008   0.00010
  -0.00073  -0.00036   0.05508  -0.00036   0.00000  -0.00012  -0.00006   0.00648  -0.00006   0.00000
  -0.00054   0.00054  -0.00018   0.05795  -0.00030  -0.00008   0.00008  -0.00006   0.00439  -0.00010
   0.00000   0.00063   0.00000  -0.00063   0.05508   0.00000   0.00010   0.00000  -0.00010   0.00648
 Atom #  1 - L=2 ONLY - Spin component 2
   1.02741   0.00437   0.00617   0.00437   0.00000   0.05795  -0.00054  -0.00073  -0.00054   0.00000
   0.00437   1.02741   0.00309  -0.00437  -0.00535  -0.00054   0.05795  -0.00036   0.00054   0.00063
   0.00617   0.00309   1.03169   0.00309   0.00000  -0.00035  -0.00018   0.05508  -0.00018   0.00000
   0.00437  -0.00437   0.00309   1.02741   0.00535  -0.00054   0.00054  -0.00036   0.05795  -0.00063
   0.00000  -0.00535   0.00000   0.00535   1.03169   0.00000   0.00030   0.00000  -0.00030   0.05508
   0.05795  -0.00054  -0.00035  -0.00054   0.00000   0.00439  -0.00008  -0.00012  -0.00008   0.00000
  -0.00054   0.05795  -0.00018   0.00054   0.00030  -0.00008   0.00439  -0.00006   0.00008   0.00010
  -0.00073  -0.00036   0.05508  -0.00036   0.00000  -0.00012  -0.00006   0.00648  -0.00006   0.00000
  -0.00054   0.00054  -0.00018   0.05795  -0.00030  -0.00008   0.00008  -0.00006   0.00439  -0.00010
   0.00000   0.00063   0.00000  -0.00063   0.05508   0.00000   0.00010   0.00000  -0.00010   0.00648
 Atom #  2 - L=2 ONLY - Spin component 1
   1.02741   0.00437   0.00617   0.00437   0.00000   0.05795  -0.00054  -0.00073  -0.00054   0.00000
   0.00437   1.02741   0.00309  -0.00437  -0.00535  -0.00054   0.05795  -0.00036   0.00054   0.00063
   0.00617   0.00309   1.03169   0.00309   0.00000  -0.00035  -0.00018   0.05508  -0.00018   0.00000
   0.00437  -0.00437   0.00309   1.02741   0.00535  -0.00054   0.00054  -0.00036   0.05795  -0.00063
   0.00000  -0.00535   0.00000   0.00535   1.03169   0.00000   0.00030   0.00000  -0.00030   0.05508
   0.05795  -0.00054  -0.00035  -0.00054   0.00000   0.00439  -0.00008  -0.00012  -0.00008   0.00000
  -0.00054   0.05795  -0.00018   0.00054   0.00030  -0.00008   0.00439  -0.00006   0.00008   0.00010
  -0.00073  -0.00036   0.05508  -0.00036   0.00000  -0.00012  -0.00006   0.00648  -0.00006   0.00000
  -0.00054   0.00054  -0.00018   0.05795  -0.00030  -0.00008   0.00008  -0.00006   0.00439  -0.00010
   0.00000   0.00063   0.00000  -0.00063   0.05508   0.00000   0.00010   0.00000  -0.00010   0.00648
 Atom #  2 - L=2 ONLY - Spin component 2
   1.02741   0.00437   0.00617   0.00437   0.00000   0.05795  -0.00054  -0.00073  -0.00054   0.00000
   0.00437   1.02741   0.00309  -0.00437  -0.00535  -0.00054   0.05795  -0.00036   0.00054   0.00063
   0.00617   0.00309   1.03169   0.00309   0.00000  -0.00035  -0.00018   0.05508  -0.00018   0.00000
   0.00437  -0.00437   0.00309   1.02741   0.00535  -0.00054   0.00054  -0.00036   0.05795  -0.00063
   0.00000  -0.00535   0.00000   0.00535   1.03169   0.00000   0.00030   0.00000  -0.00030   0.05508
   0.05795  -0.00054  -0.00035  -0.00054   0.00000   0.00439  -0.00008  -0.00012  -0.00008   0.00000
  -0.00054   0.05795  -0.00018   0.00054   0.00030  -0.00008   0.00439  -0.00006   0.00008   0.00010
  -0.00073  -0.00036   0.05508  -0.00036   0.00000  -0.00012  -0.00006   0.00648  -0.00006   0.00000
  -0.00054   0.00054  -0.00018   0.05795  -0.00030  -0.00008   0.00008  -0.00006   0.00439  -0.00010
   0.00000   0.00063   0.00000  -0.00063   0.05508   0.00000   0.00010   0.00000  -0.00010   0.00648

---------- Exact Exchange ---------------------------------------------------

====== For Atom    1, occupations for correlated orbitals. l =   2

Occupation matrix for spin  1
     0.62505    0.00638    0.00736    0.00638    0.00000
     0.00638    0.62505    0.00368   -0.00638   -0.00637
     0.00736    0.00368    0.69056    0.00368    0.00000
     0.00638   -0.00638    0.00368    0.62505    0.00637
     0.00000   -0.00637    0.00000    0.00637    0.69056

Occupation matrix for spin  2
     0.62505    0.00638    0.00736    0.00638    0.00000
     0.00638    0.62505    0.00368   -0.00638   -0.00637
     0.00736    0.00368    0.69056    0.00368    0.00000
     0.00638   -0.00638    0.00368    0.62505    0.00637
     0.00000   -0.00637    0.00000    0.00637    0.69056

====== For Atom    2, occupations for correlated orbitals. l =   2

Occupation matrix for spin  1
     0.62505    0.00638    0.00736    0.00638    0.00000
     0.00638    0.62505    0.00368   -0.00638   -0.00637
     0.00736    0.00368    0.69056    0.00368    0.00000
     0.00638   -0.00638    0.00368    0.62505    0.00637
     0.00000   -0.00637    0.00000    0.00637    0.69056

Occupation matrix for spin  2
     0.62505    0.00638    0.00736    0.00638    0.00000
     0.00638    0.62505    0.00368   -0.00638   -0.00637
     0.00736    0.00368    0.69056    0.00368    0.00000
     0.00638   -0.00638    0.00368    0.62505    0.00637
     0.00000   -0.00637    0.00000    0.00637    0.69056


================================================================================

 ----iterations are completed or convergence reached----

 Mean square residual over all n,k,spin=   7.6219E-12; max=  2.8076E-09
   0.1250  0.1250  0.1250    1  8.64948E-14 kpt; spin; max resid(k); each band:
 2.91E-16 1.78E-16 4.24E-14 3.37E-15 3.12E-15 2.56E-14 2.34E-14 1.32E-14
 7.28E-15 5.98E-15 2.42E-15 4.35E-14 2.24E-15 7.24E-15 1.32E-14 3.67E-15
 1.72E-14 6.72E-15 7.78E-15 1.25E-14 7.80E-15 7.81E-15 2.92E-15 8.35E-15
 1.47E-14 5.89E-14 1.67E-14 4.52E-14 1.92E-14 8.65E-14
   0.3750  0.1250  0.1250    1  1.49026E-11 kpt; spin; max resid(k); each band:
 3.36E-16 2.03E-16 2.59E-14 1.37E-14 4.43E-15 5.08E-15 6.37E-15 2.60E-15
 2.69E-14 9.73E-15 4.20E-15 1.08E-14 4.09E-14 8.12E-15 1.98E-14 2.45E-15
 2.05E-14 4.00E-14 2.48E-15 3.33E-14 8.39E-15 1.33E-14 4.44E-14 9.23E-15
 8.86E-15 4.10E-14 1.52E-14 3.34E-14 7.81E-14 1.49E-11
  -0.3750  0.1250  0.1250    1  6.91755E-14 kpt; spin; max resid(k); each band:
 3.98E-16 1.95E-16 7.27E-15 2.65E-15 8.50E-15 1.79E-15 6.99E-15 3.03E-15
 1.04E-14 3.83E-14 3.16E-14 1.26E-14 1.92E-15 1.31E-14 5.45E-15 1.43E-14
 6.90E-15 6.92E-14 5.74E-15 3.26E-14 2.82E-15 2.87E-15 3.20E-15 8.32E-15
 8.99E-15 1.30E-14 5.79E-14 1.06E-14 4.69E-14 6.74E-15
  -0.1250  0.1250  0.1250    1  1.25633E-13 kpt; spin; max resid(k); each band:
 3.00E-16 1.52E-16 2.27E-14 1.70E-14 8.63E-15 2.20E-14 3.93E-15 1.06E-14
 1.73E-14 5.46E-15 6.90E-15 2.24E-14 1.54E-14 1.78E-14 3.45E-14 1.07E-14
 1.73E-14 3.67E-15 4.06E-15 9.56E-15 2.66E-15 2.06E-14 7.43E-15 6.09E-15
 2.31E-14 4.06E-14 4.56E-14 2.99E-14 2.88E-14 1.26E-13
   0.3750  0.3750  0.1250    1  1.12758E-13 kpt; spin; max resid(k); each band:
 2.69E-16 1.49E-16 1.42E-14 4.37E-15 6.70E-15 1.23E-14 2.14E-14 7.32E-15
 3.45E-14 7.47E-15 5.90E-15 2.36E-14 2.99E-14 1.81E-14 2.51E-15 3.70E-15
 4.90E-14 9.98E-15 1.14E-14 6.61E-14 2.09E-14 2.56E-15 5.18E-15 4.52E-15
 4.99E-15 6.71E-15 1.87E-14 3.81E-14 2.90E-14 1.13E-13
  -0.3750  0.3750  0.1250    1  4.64661E-12 kpt; spin; max resid(k); each band:
 2.22E-16 1.81E-16 8.43E-15 2.36E-14 1.36E-14 7.99E-15 2.26E-15 1.08E-14
 5.35E-15 2.71E-14 1.66E-14 6.65E-15 6.31E-15 3.47E-14 2.07E-14 2.44E-14
 4.16E-15 6.63E-15 1.05E-14 2.93E-14 1.65E-14 7.23E-15 3.75E-15 1.33E-14
 2.16E-14 1.43E-14 1.75E-14 4.13E-14 4.08E-14 4.65E-12
  -0.1250  0.3750  0.1250    1  6.90886E-14 kpt; spin; max resid(k); each band:
 2.99E-16 2.04E-16 4.84E-15 3.74E-15 1.61E-14 8.66E-15 4.33E-15 1.40E-14
 4.49E-14 1.38E-15 9.36E-15 1.36E-14 3.00E-14 5.02E-15 2.53E-14 2.81E-15
 1.78E-14 3.44E-15 9.89E-15 4.64E-14 5.13E-15 4.93E-15 2.93E-15 1.02E-14
 8.00E-15 1.43E-14 1.76E-14 6.91E-14 3.18E-14 2.75E-14
  -0.3750 -0.3750  0.1250    1  8.47684E-14 kpt; spin; max resid(k); each band:
 4.16E-16 1.67E-16 6.35E-15 1.10E-14 1.72E-15 7.55E-15 3.16E-15 2.40E-15
 3.84E-15 4.34E-14 2.81E-14 2.52E-14 2.61E-14 1.97E-14 9.89E-15 3.58E-15
 4.17E-15 8.48E-14 2.21E-15 1.44E-15 3.48E-14 2.00E-14 5.34E-15 4.02E-15
 1.03E-14 6.79E-14 4.75E-14 3.44E-14 4.11E-14 7.98E-14
  -0.1250 -0.3750  0.1250    1  1.67882E-13 kpt; spin; max resid(k); each band:
 3.14E-16 3.02E-16 2.88E-14 1.52E-14 5.29E-15 3.51E-15 9.74E-15 2.71E-15
 2.23E-14 7.38E-15 2.31E-14 9.41E-15 1.65E-14 2.45E-14 2.62E-14 3.09E-15
 2.77E-15 3.65E-14 3.00E-15 4.64E-14 1.44E-14 1.09E-14 3.24E-14 5.59E-14
 1.81E-14 1.24E-14 1.72E-14 2.39E-14 3.72E-14 1.68E-13
  -0.1250 -0.1250  0.1250    1  1.25209E-13 kpt; spin; max resid(k); each band:
 2.65E-16 3.07E-16 1.61E-15 4.66E-14 5.06E-15 1.31E-14 1.63E-15 4.07E-15
 1.67E-14 1.77E-14 4.10E-15 1.12E-14 3.57E-14 2.15E-14 2.75E-14 5.13E-14
 4.17E-14 1.11E-14 3.46E-15 2.66E-15 1.47E-14 1.14E-14 4.08E-14 9.79E-15
 5.04E-15 1.02E-14 6.21E-14 1.48E-14 7.03E-14 1.25E-13
   0.1250  0.1250  0.3750    1  8.08074E-14 kpt; spin; max resid(k); each band:
 2.84E-16 2.97E-16 2.86E-14 3.34E-15 9.63E-15 1.94E-14 4.14E-14 8.34E-15
 6.52E-15 7.68E-15 3.27E-15 2.96E-16 1.52E-14 4.83E-14 2.01E-14 3.84E-15
 2.22E-14 8.74E-15 7.51E-15 9.06E-15 2.19E-14 2.07E-14 9.08E-15 2.59E-15
 8.99E-15 2.52E-14 1.48E-14 1.99E-14 4.36E-14 8.08E-14
   0.3750  0.1250  0.3750    1  7.42263E-14 kpt; spin; max resid(k); each band:
 2.75E-16 1.54E-16 3.10E-14 1.51E-14 2.10E-14 4.68E-15 5.43E-15 1.87E-14
 2.68E-15 1.11E-14 9.96E-15 5.26E-15 1.53E-14 2.77E-14 1.39E-14 2.69E-14
 1.52E-14 1.65E-14 1.58E-14 2.11E-15 1.70E-14 6.13E-15 7.36E-15 1.73E-14
 1.18E-14 2.88E-14 3.85E-14 3.10E-14 3.83E-14 7.42E-14
  -0.3750  0.1250  0.3750    1  4.42352E-10 kpt; spin; max resid(k); each band:
 2.75E-16 1.94E-16 6.03E-15 1.03E-14 8.87E-15 6.70E-15 1.21E-14 1.40E-14
 5.99E-15 6.60E-15 2.74E-14 2.10E-14 2.88E-14 1.96E-14 3.77E-15 5.04E-15
 2.33E-14 6.78E-15 5.90E-14 8.45E-15 2.69E-14 1.76E-14 6.77E-15 6.20E-15
 8.46E-15 9.41E-15 5.28E-14 5.74E-14 2.55E-13 4.42E-10
  -0.1250  0.1250  0.3750    1  1.51281E-13 kpt; spin; max resid(k); each band:
 3.58E-16 3.53E-16 1.10E-14 8.97E-15 3.69E-15 1.03E-14 3.60E-14 2.76E-14
 4.01E-15 3.05E-15 4.15E-15 5.87E-15 6.96E-15 1.24E-14 5.11E-14 1.33E-14
 3.59E-14 1.89E-14 4.24E-14 4.78E-15 2.64E-15 4.82E-14 6.60E-14 3.48E-15
 4.03E-15 1.37E-14 1.20E-14 2.38E-14 4.29E-14 1.51E-13
   0.3750  0.3750  0.3750    1  4.94980E-13 kpt; spin; max resid(k); each band:
 3.21E-16 1.90E-16 1.65E-14 2.49E-14 1.47E-14 4.36E-15 4.98E-15 1.45E-14
 6.13E-15 2.85E-14 1.32E-14 6.29E-15 1.09E-14 7.19E-15 5.47E-14 1.33E-14
 4.42E-15 1.50E-15 4.98E-14 6.65E-15 7.95E-15 1.57E-14 2.41E-14 1.18E-14
 2.29E-15 9.86E-15 4.73E-14 1.52E-14 1.01E-13 4.95E-13
  -0.3750  0.3750  0.3750    1  5.68566E-14 kpt; spin; max resid(k); each band:
 1.78E-16 1.69E-16 1.41E-14 6.78E-15 1.26E-15 1.35E-14 2.07E-14 1.50E-14
 4.44E-15 1.23E-14 4.87E-15 2.73E-14 2.03E-14 2.73E-14 5.91E-15 4.11E-14
 8.35E-15 2.63E-15 2.96E-14 3.16E-15 2.48E-15 2.37E-14 1.24E-14 1.23E-14
 2.60E-15 1.54E-14 5.69E-14 1.91E-14 3.53E-14 3.14E-14
  -0.1250  0.3750  0.3750    1  1.29075E-09 kpt; spin; max resid(k); each band:
 2.92E-16 1.79E-16 6.91E-15 5.77E-15 6.38E-15 2.21E-14 3.82E-14 7.14E-15
 3.92E-15 3.09E-15 4.69E-15 6.57E-15 3.93E-15 1.65E-14 4.65E-14 6.08E-15
 3.33E-15 4.09E-14 3.26E-14 1.19E-14 8.44E-15 4.22E-14 1.04E-14 1.41E-14
 2.71E-15 2.28E-14 4.19E-14 3.64E-14 4.55E-14 1.29E-09
  -0.3750 -0.3750  0.3750    1  7.67527E-14 kpt; spin; max resid(k); each band:
 3.28E-16 3.15E-16 3.61E-15 1.28E-14 9.60E-15 2.34E-15 6.32E-15 3.46E-15
 9.21E-16 2.87E-14 3.74E-14 3.61E-15 2.16E-14 2.31E-15 1.58E-14 4.09E-14
 1.70E-15 7.68E-14 4.41E-14 4.23E-15 2.44E-15 4.87E-14 6.79E-15 2.77E-15
 5.45E-15 1.58E-14 2.57E-14 5.00E-14 7.21E-14 3.90E-14
  -0.1250 -0.3750  0.3750    1  2.80756E-09 kpt; spin; max resid(k); each band:
 3.24E-16 1.79E-16 8.51E-15 6.21E-15 2.36E-15 3.86E-14 2.22E-14 3.47E-15
 2.82E-15 1.54E-14 6.03E-15 6.56E-15 1.02E-14 4.01E-14 2.36E-15 2.58E-15
 4.94E-14 4.86E-15 3.44E-14 1.07E-14 4.12E-14 2.60E-14 3.41E-14 5.48E-15
 9.49E-15 1.11E-14 2.73E-14 2.63E-14 5.96E-14 2.81E-09
  -0.1250 -0.1250  0.3750    1  1.44754E-12 kpt; spin; max resid(k); each band:
 3.02E-16 2.78E-16 2.88E-14 1.07E-14 3.49E-14 8.13E-15 2.11E-15 4.04E-15
 4.86E-15 2.36E-15 1.36E-14 3.83E-14 1.05E-14 4.71E-14 1.24E-15 5.11E-14
 1.23E-14 2.32E-15 1.84E-15 1.88E-14 4.97E-15 3.48E-14 1.87E-15 4.75E-14
 4.50E-15 1.83E-14 2.50E-14 2.58E-14 3.60E-14 1.45E-12
 reduced coordinates (array xred) for    4 atoms
       0.000000000000      0.000000000000      0.000000000000
       0.000000000000      0.000000000000      0.500000000000
       0.500000000000      0.500000000000      0.250000000000
       0.500000000000      0.500000000000      0.750000000000
 rms dE/dt=  0.0000E+00; max dE/dt=  0.0000E+00; dE/dt below (all hartree)
    1       0.000000000000      0.000000000000      0.000000000000
    2       0.000000000000      0.000000000000      0.000000000000
    3       0.000000000000      0.000000000000      0.000000000000
    4       0.000000000000      0.000000000000      0.000000000000

 cartesian coordinates (angstrom) at end:
    1      0.00000000000000     0.00000000000000     0.00000000000000
    2      2.09554174601640     2.09554174601640     0.00000000000000
    3      2.09554174601640     2.09554174601640     2.09554174601640
    4      4.19108349203280     4.19108349203280     2.09554174601640

 cartesian forces (hartree/bohr) at end:
    1     -0.00000000000000    -0.00000000000000    -0.00000000000000
    2     -0.00000000000000    -0.00000000000000    -0.00000000000000
    3     -0.00000000000000    -0.00000000000000    -0.00000000000000
    4     -0.00000000000000    -0.00000000000000    -0.00000000000000
 frms,max,avg= 0.0000000E+00 0.0000000E+00   0.000E+00  0.000E+00  0.000E+00 h/b

 cartesian forces (eV/Angstrom) at end:
    1     -0.00000000000000    -0.00000000000000    -0.00000000000000
    2     -0.00000000000000    -0.00000000000000    -0.00000000000000
    3     -0.00000000000000    -0.00000000000000    -0.00000000000000
    4     -0.00000000000000    -0.00000000000000    -0.00000000000000
 frms,max,avg= 0.0000000E+00 0.0000000E+00   0.000E+00  0.000E+00  0.000E+00 e/A
 length scales=  7.920000000000  7.920000000000  7.920000000000 bohr
              =  4.191083492033  4.191083492033  4.191083492033 angstroms
 prteigrs : about to open file t18o_EIG
 Fermi (or HOMO) energy (hartree) =   0.69803   Average Vxc (hartree)=  -0.50587
 Eigenvalues (hartree) for nkpt=  20  k points:
 kpt#   1, nband= 30, wtk=  0.03125, kpt=  0.1250  0.1250  0.1250 (reduced coord)
  -0.62856  -0.57708  -0.08540  -0.06134  -0.04421   0.05816   0.06368   0.10469
   0.12878   0.13930   0.21131   0.29645   0.32281   0.37442   0.39962   0.40030
   0.49622   0.58424   0.69276   0.76020   0.87631   0.89456   0.90427   0.92570
   0.92580   0.95067   1.02634   1.04487   1.05053   1.10364
 kpt#   2, nband= 30, wtk=  0.06250, kpt=  0.3750  0.1250  0.1250 (reduced coord)
  -0.59765  -0.57287  -0.00548   0.06687   0.13342   0.13425   0.16534   0.21126
   0.21127   0.26837   0.35059   0.35215   0.40777   0.42641   0.49056   0.53896
   0.60012   0.69471   0.72814   0.78034   0.82648   0.83124   0.84928   0.87569
   0.95879   1.01855   1.03235   1.12632   1.19006   1.21424
 kpt#   3, nband= 30, wtk=  0.06250, kpt= -0.3750  0.1250  0.1250 (reduced coord)
  -0.58194  -0.56189   0.10926   0.12527   0.14450   0.16363   0.21384   0.29633
   0.32808   0.35307   0.36421   0.41998   0.45290   0.47212   0.57410   0.58236
   0.69589   0.76161   0.76507   0.82844   0.88963   0.93310   0.93687   0.97310
   1.00963   1.07393   1.08608   1.21808   1.28268   1.29558
 kpt#   4, nband= 30, wtk=  0.06250, kpt= -0.1250  0.1250  0.1250 (reduced coord)
  -0.61093  -0.57362  -0.06253   0.03300   0.12773   0.13287   0.16451   0.20639
   0.20768   0.23296   0.29168   0.34541   0.41032   0.41190   0.50234   0.52520
   0.57643   0.63830   0.64598   0.76375   0.80958   0.83131   0.85007   0.89282
   0.91602   0.97397   1.00404   1.08365   1.08745   1.12444
 kpt#   5, nband= 30, wtk=  0.03125, kpt=  0.3750  0.3750  0.1250 (reduced coord)
  -0.58980  -0.57137   0.05026   0.11470   0.12200   0.13702   0.21295   0.22346
   0.26817   0.33297   0.33801   0.34391   0.46458   0.48153   0.50865   0.59037
   0.62815   0.71745   0.75652   0.75829   0.83390   0.88317   0.90066   0.92285
   0.97671   0.99387   1.09337   1.14745   1.20281   1.24002
 kpt#   6, nband= 30, wtk=  0.06250, kpt= -0.3750  0.3750  0.1250 (reduced coord)
  -0.57632  -0.57560   0.09070   0.10021   0.12455   0.14012   0.17992   0.19646
   0.23452   0.25338   0.31579   0.36757   0.36931   0.39139   0.45372   0.47419
   0.51501   0.59289   0.67393   0.77581   0.78585   0.86177   0.87800   0.88966
   0.92991   0.93858   1.00711   1.09095   1.16126   1.26065
 kpt#   7, nband= 30, wtk=  0.06250, kpt= -0.1250  0.3750  0.1250 (reduced coord)
  -0.58554  -0.57170   0.07494   0.10985   0.13274   0.14321   0.16676   0.20787
   0.23650   0.26516   0.33942   0.34277   0.36920   0.38829   0.42825   0.53488
   0.55690   0.67163   0.68429   0.79642   0.82114   0.85619   0.88341   0.91766
   0.95580   1.04717   1.09518   1.18319   1.24134   1.24305
 kpt#   8, nband= 30, wtk=  0.03125, kpt= -0.3750 -0.3750  0.1250 (reduced coord)
  -0.58392  -0.56863   0.11408   0.11977   0.13012   0.14791   0.29299   0.30841
   0.34812   0.36439   0.45371   0.45520   0.45656   0.46762   0.53545   0.69803
   0.74173   0.75063   0.76322   0.85952   0.90517   0.91383   0.96935   0.97770
   0.98675   1.05821   1.09595   1.09643   1.22064   1.27247
 kpt#   9, nband= 30, wtk=  0.06250, kpt= -0.1250 -0.3750  0.1250 (reduced coord)
  -0.59496  -0.58562   0.06252   0.06878   0.11641   0.12467   0.16102   0.17639
   0.20946   0.30524   0.35587   0.35635   0.39211   0.39996   0.42858   0.53482
   0.62854   0.67127   0.70436   0.77378   0.78945   0.83008   0.85738   0.88524
   0.91274   0.98389   1.01778   1.01864   1.20728   1.27869
 kpt#  10, nband= 30, wtk=  0.03125, kpt= -0.1250 -0.1250  0.1250 (reduced coord)
  -0.61334  -0.58581  -0.04302   0.08773   0.09947   0.13279   0.15694   0.16304
   0.21511   0.21590   0.27299   0.34049   0.40683   0.40797   0.42775   0.46984
   0.55977   0.61298   0.77200   0.77754   0.78295   0.83423   0.84691   0.86438
   0.91428   0.93586   1.07661   1.07820   1.11882   1.12685
 kpt#  11, nband= 30, wtk=  0.03125, kpt=  0.1250  0.1250  0.3750 (reduced coord)
  -0.63002  -0.58369  -0.12617  -0.07196  -0.05634  -0.04072   0.05125   0.11549
   0.13483   0.14981   0.19787   0.30813   0.33691   0.37486   0.42394   0.42419
   0.46050   0.57778   0.68041   0.78953   0.84142   0.87356   0.89091   0.89261
   0.91120   0.98587   1.00665   1.02742   1.05443   1.05582
 kpt#  12, nband= 30, wtk=  0.06250, kpt=  0.3750  0.1250  0.3750 (reduced coord)
  -0.59871  -0.57553  -0.00077   0.06020   0.06680   0.13710   0.14491   0.17391
   0.22428   0.24887   0.27950   0.31508   0.33914   0.40228   0.45530   0.50830
   0.59912   0.61745   0.67622   0.72466   0.81655   0.83017   0.85748   0.87494
   0.89411   0.89750   1.01815   1.06091   1.13727   1.17076
 kpt#  13, nband= 30, wtk=  0.06250, kpt= -0.3750  0.1250  0.3750 (reduced coord)
  -0.58021  -0.57170   0.09880   0.11603   0.12401   0.14181   0.16409   0.21649
   0.29371   0.33499   0.37901   0.38855   0.39632   0.47597   0.48380   0.59999
   0.61883   0.67683   0.75799   0.79631   0.84396   0.90385   0.92892   1.00691
   1.01786   1.02457   1.10977   1.19539   1.29267   1.30939
 kpt#  14, nband= 30, wtk=  0.06250, kpt= -0.1250  0.1250  0.3750 (reduced coord)
  -0.59849  -0.59244   0.05972   0.12997   0.13408   0.14694   0.15337   0.15707
   0.24062   0.25979   0.29888   0.34413   0.40043   0.41527   0.55118   0.62372
   0.67147   0.67593   0.69545   0.72362   0.72416   0.81852   0.82974   0.89095
   0.90473   0.93571   0.96846   1.01618   1.17145   1.19716
 kpt#  15, nband= 30, wtk=  0.03125, kpt=  0.3750  0.3750  0.3750 (reduced coord)
  -0.59425  -0.58529   0.03074   0.05630   0.07251   0.13038   0.15433   0.18243
   0.18371   0.23127   0.23686   0.36714   0.37302   0.38015   0.42159   0.43318
   0.52704   0.60458   0.64275   0.74143   0.75588   0.81054   0.83932   0.87849
   0.88426   0.95306   0.97751   0.98719   1.23191   1.24464
 kpt#  16, nband= 30, wtk=  0.06250, kpt= -0.3750  0.3750  0.3750 (reduced coord)
  -0.57850  -0.57319   0.09280   0.10377   0.14475   0.15413   0.16275   0.19786
   0.24442   0.25692   0.28181   0.30616   0.34366   0.38265   0.46716   0.49064
   0.53700   0.61274   0.62150   0.69118   0.80136   0.85758   0.87104   0.89502
   0.91043   0.99322   1.06802   1.08396   1.16207   1.16349
 kpt#  17, nband= 30, wtk=  0.06250, kpt= -0.1250  0.3750  0.3750 (reduced coord)
  -0.58752  -0.57050   0.11772   0.12430   0.14253   0.15205   0.15664   0.19442
   0.25981   0.27335   0.28854   0.31676   0.37550   0.46751   0.51378   0.57378
   0.62952   0.64236   0.66254   0.75481   0.76173   0.81902   0.86489   0.90894
   0.94190   1.02132   1.05771   1.15710   1.24409   1.32425
 kpt#  18, nband= 30, wtk=  0.03125, kpt= -0.3750 -0.3750  0.3750 (reduced coord)
  -0.58356  -0.57111   0.12355   0.12377   0.14896   0.16785   0.17997   0.25094
   0.30988   0.34807   0.40093   0.42746   0.46646   0.46789   0.51495   0.57944
   0.74118   0.74477   0.77963   0.78532   0.85909   0.90277   0.90643   0.94865
   1.00377   1.01569   1.03984   1.08629   1.22038   1.24661
 kpt#  19, nband= 30, wtk=  0.06250, kpt= -0.1250 -0.3750  0.3750 (reduced coord)
  -0.59841  -0.57179   0.05737   0.13075   0.14739   0.15589   0.19602   0.20611
   0.20623   0.29314   0.32223   0.33507   0.37616   0.53217   0.55119   0.59680
   0.65202   0.67101   0.69598   0.77147   0.80404   0.84857   0.86627   0.92418
   0.94955   0.97259   1.05954   1.08523   1.16491   1.25999
 kpt#  20, nband= 30, wtk=  0.03125, kpt= -0.1250 -0.1250  0.3750 (reduced coord)
  -0.61003  -0.59697  -0.10302   0.00299   0.06690   0.07622   0.13104   0.14435
   0.16499   0.22255   0.29366   0.34239   0.38924   0.39792   0.40909   0.45184
   0.51598   0.56625   0.71911   0.79702   0.80028   0.82235   0.82697   0.83203
   0.89140   0.93930   0.98175   1.02050   1.06811   1.14672
 Total charge density [el/Bohr^3]
,     Maximum=    1.0464E+00  at reduced coord.    0.0000    0.0000    0.5000
,Next maximum=    1.0464E+00  at reduced coord.    0.0000    0.0000    0.0000
,     Minimum=    2.3448E-02  at reduced coord.    0.1875    0.1875    0.0938
,Next minimum=    2.3448E-02  at reduced coord.    0.4375    0.1875    0.0938
 Spin up density      [el/Bohr^3]
,     Maximum=    5.2319E-01  at reduced coord.    0.0000    0.0000    0.0000
,Next maximum=    5.2319E-01  at reduced coord.    0.0000    0.0000    0.5000
,     Minimum=    1.1724E-02  at reduced coord.    0.8125    0.5625    0.4063
,Next minimum=    1.1724E-02  at reduced coord.    0.5625    0.8125    0.4063
 Spin down density    [el/Bohr^3]
,     Maximum=    5.2319E-01  at reduced coord.    0.0000    0.0000    0.5000
,Next maximum=    5.2319E-01  at reduced coord.    0.0000    0.0000    0.0000
,     Minimum=    1.1724E-02  at reduced coord.    0.1875    0.1875    0.0938
,Next minimum=    1.1724E-02  at reduced coord.    0.4375    0.1875    0.0938
 Magnetization (spin up - spin down) [el/Bohr^3]
,     Maximum=    1.3178E-08  at reduced coord.    0.0625    0.1250    0.8750
,Next maximum=    1.3178E-08  at reduced coord.    0.1250    0.0625    0.8750
,     Minimum=   -1.3178E-08  at reduced coord.    0.0625    0.0625    0.3750
,Next minimum=   -1.3178E-08  at reduced coord.    0.1250    0.0625    0.3750
 Relative magnetization (=zeta, between -1 and 1)
,     Maximum=    8.5615E-08  at reduced coord.    0.1250    0.1250    0.8125
,Next maximum=    8.5615E-08  at reduced coord.    0.8750    0.8750    0.1875
,     Minimum=   -8.5615E-08  at reduced coord.    0.1250    0.1250    0.3125
,Next minimum=   -8.5615E-08  at reduced coord.    0.8750    0.8750    0.6875

--------------------------------------------------------------------------------
 Components of total free energy (in Hartree) :

    Kinetic energy  =  3.30864489872325E+01
    Hartree energy  =  9.76685710129164E+00
    XC energy       = -1.65899625884115E+01
    Ewald energy    = -9.52410591238850E+01
    PspCore energy  =  3.70648142959665E+00
    Loc. psp. energy= -5.39544389375430E+01
    Spherical terms =  2.30476261691543E+01
    >>>>>>>>> Etotal= -9.61780469625645E+01

 "Double-counting" decomposition of free energy:
    Band energy     =  5.16479152699719E+00
    Ewald energy    = -9.52410591238850E+01
    PspCore energy  =  3.70648142959665E+00
    Dble-C XC-energy= -5.07508860027654E+00
    Spherical terms = -4.73317205744535E+00
    >>>> Etotal (DC)= -9.61780468250131E+01

  >Total energy in eV           = -2.61713775480345E+03
  >Total DC energy in eV        = -2.61713775106049E+03
--------------------------------------------------------------------------------

 Cartesian components of stress tensor (hartree/bohr^3)
  sigma(1 1)=  1.71785800E-01  sigma(3 2)=  8.70084642E-04
  sigma(2 2)=  1.71785800E-01  sigma(3 1)=  8.70084642E-04
  sigma(3 3)=  1.71785800E-01  sigma(2 1)= -8.70084642E-04

-Cartesian components of stress tensor (GPa)         [Pressure= -5.0541E+03 GPa]
- sigma(1 1)=  5.05411188E+03  sigma(3 2)=  2.55987697E+01
- sigma(2 2)=  5.05411188E+03  sigma(3 1)=  2.55987697E+01
- sigma(3 3)=  5.05411188E+03  sigma(2 1)= -2.55987697E+01

== END DATASET(S) ==============================================================
================================================================================
  
 -outvars: echo values of variables after computation  --------
     acell    7.9200000000E+00  7.9200000000E+00  7.9200000000E+00 Bohr
       amu    5.86900000E+01  1.59994000E+01
      ecut    4.00000000E+00 Hartree
    etotal   -9.6178046825E+01
     fcart   -0.0000000000E+00 -0.0000000000E+00 -0.0000000000E+00
             -0.0000000000E+00 -0.0000000000E+00 -0.0000000000E+00
             -0.0000000000E+00 -0.0000000000E+00 -0.0000000000E+00
             -0.0000000000E+00 -0.0000000000E+00 -0.0000000000E+00
       ixc        11
       kpt    1.25000000E-01  1.25000000E-01  1.25000000E-01
              3.75000000E-01  1.25000000E-01  1.25000000E-01
             -3.75000000E-01  1.25000000E-01  1.25000000E-01
             -1.25000000E-01  1.25000000E-01  1.25000000E-01
              3.75000000E-01  3.75000000E-01  1.25000000E-01
             -3.75000000E-01  3.75000000E-01  1.25000000E-01
             -1.25000000E-01  3.75000000E-01  1.25000000E-01
             -3.75000000E-01 -3.75000000E-01  1.25000000E-01
             -1.25000000E-01 -3.75000000E-01  1.25000000E-01
             -1.25000000E-01 -1.25000000E-01  1.25000000E-01
              1.25000000E-01  1.25000000E-01  3.75000000E-01
              3.75000000E-01  1.25000000E-01  3.75000000E-01
             -3.75000000E-01  1.25000000E-01  3.75000000E-01
             -1.25000000E-01  1.25000000E-01  3.75000000E-01
              3.75000000E-01  3.75000000E-01  3.75000000E-01
             -3.75000000E-01  3.75000000E-01  3.75000000E-01
             -1.25000000E-01  3.75000000E-01  3.75000000E-01
             -3.75000000E-01 -3.75000000E-01  3.75000000E-01
             -1.25000000E-01 -3.75000000E-01  3.75000000E-01
             -1.25000000E-01 -1.25000000E-01  3.75000000E-01
   kptrlen    2.24011428E+01
    kptopt         1
  kptrlatt    4  0  0   0  4  0   0  0  4
P    mkmem        20
     natom         4
     nband        30
     ngfft        12      12      24
   ngfftdg        16      16      32
      nkpt        20
    nspden         2
     nstep        70
      nsym        24
    ntypat         2
       occ    2.000000  2.000000  2.000000  2.000000  2.000000  2.000000
              2.000000  2.000000  2.000000  2.000000  2.000000  2.000000
              2.000000  2.000000  2.000000  2.000000  0.000000  0.000000
              0.000000  0.000000  0.000000  0.000000  0.000000  0.000000
              0.000000  0.000000  0.000000  0.000000  0.000000  0.000000
 pawecutdg    1.00000000E+01 Hartree
 useexexch         1
   lexexch         2      -1
 prtdensph         1
    ratsph    2.31080032E+00  1.11262345E+00 Bohr
     rprim    0.0000000000E+00  5.0000000000E-01  5.0000000000E-01
              5.0000000000E-01  0.0000000000E+00  5.0000000000E-01
              1.0000000000E+00  1.0000000000E+00  0.0000000000E+00
    shiftk    5.00000000E-01  5.00000000E-01  5.00000000E-01
   spgroup       166
    spinat    0.0000000000E+00  0.0000000000E+00  1.0000000000E+00
              0.0000000000E+00  0.0000000000E+00 -1.0000000000E+00
              0.0000000000E+00  0.0000000000E+00  0.0000000000E+00
              0.0000000000E+00  0.0000000000E+00  0.0000000000E+00
    strten    1.7178579995E-01  1.7178579995E-01  1.7178579995E-01
              8.7008464239E-04  8.7008464239E-04 -8.7008464239E-04
    symafm    1 -1  1  -1  1 -1   1 -1  1      -1  1 -1   1 -1  1  -1  1 -1
              1 -1  1  -1  1 -1
    symrel    1  0  0   0  1  0   0  0  1       1  0  0   0  1  0   0  0  1
             -1  0  0   0 -1  0   0  0 -1      -1  0  0   0 -1  0   0  0 -1
              0  1  0   1  0  0   0  0  1       0  1  0   1  0  0   0  0  1
              0 -1  0  -1  0  0   0  0 -1       0 -1  0  -1  0  0   0  0 -1
              0 -1  0   1 -1  0   0 -2  1       0 -1  0   1 -1  0   0 -2  1
              0  1  0  -1  1  0   0  2 -1       0  1  0  -1  1  0   0  2 -1
              1 -1  0   0 -1  0   0 -2  1       1 -1  0   0 -1  0   0 -2  1
             -1  1  0   0  1  0   0  2 -1      -1  1  0   0  1  0   0  2 -1
             -1  1  0  -1  0  0  -2  0  1      -1  1  0  -1  0  0  -2  0  1
              1 -1  0   1  0  0   2  0 -1       1 -1  0   1  0  0   2  0 -1
             -1  0  0  -1  1  0  -2  0  1      -1  0  0  -1  1  0  -2  0  1
              1  0  0   1 -1  0   2  0 -1       1  0  0   1 -1  0   2  0 -1
     tnons    0.0000000  0.0000000  0.0000000     0.0000000  0.0000000  0.5000000
              0.0000000  0.0000000  0.0000000     0.0000000  0.0000000  0.5000000
              0.0000000  0.0000000  0.0000000     0.0000000  0.0000000  0.5000000
              0.0000000  0.0000000  0.0000000     0.0000000  0.0000000  0.5000000
              0.0000000  0.0000000  0.0000000     0.0000000  0.0000000  0.5000000
              0.0000000  0.0000000  0.0000000     0.0000000  0.0000000  0.5000000
              0.0000000  0.0000000  0.0000000     0.0000000  0.0000000  0.5000000
              0.0000000  0.0000000  0.0000000     0.0000000  0.0000000  0.5000000
              0.0000000  0.0000000  0.0000000     0.0000000  0.0000000  0.5000000
              0.0000000  0.0000000  0.0000000     0.0000000  0.0000000  0.5000000
              0.0000000  0.0000000  0.0000000     0.0000000  0.0000000  0.5000000
              0.0000000  0.0000000  0.0000000     0.0000000  0.0000000  0.5000000
    toldfe    1.00000000E-08 Hartree
     typat    1  1  2  2
    useylm         1
       wtk      0.03125    0.06250    0.06250    0.06250    0.03125    0.06250
                0.06250    0.03125    0.06250    0.03125    0.03125    0.06250
                0.06250    0.06250    0.03125    0.06250    0.06250    0.03125
                0.06250    0.03125
    xangst    0.0000000000E+00  0.0000000000E+00  0.0000000000E+00
              2.0955417460E+00  2.0955417460E+00  0.0000000000E+00
              2.0955417460E+00  2.0955417460E+00  2.0955417460E+00
              4.1910834920E+00  4.1910834920E+00  2.0955417460E+00
     xcart    0.0000000000E+00  0.0000000000E+00  0.0000000000E+00
              3.9600000000E+00  3.9600000000E+00  0.0000000000E+00
              3.9600000000E+00  3.9600000000E+00  3.9600000000E+00
              7.9200000000E+00  7.9200000000E+00  3.9600000000E+00
      xred    0.0000000000E+00  0.0000000000E+00  0.0000000000E+00
              0.0000000000E+00  0.0000000000E+00  5.0000000000E-01
              5.0000000000E-01  5.0000000000E-01  2.5000000000E-01
              5.0000000000E-01  5.0000000000E-01  7.5000000000E-01
     znucl     28.00000    8.00000

================================================================================

- Total cpu        time (s,m,h):         27.2        0.45      0.008
- Total wall clock time (s,m,h):         27.2        0.45      0.008

- For major independent code sections, cpu and wall times (sec),
- as well as % of the total time and number of calls 

- routine                 cpu     %       wall     %      number of calls 
-                                                          (-1=no count)
- fourwf(pot)            9.316  34.2      9.350  34.3          59566
- nonlop(apply)          4.254  15.6      4.185  15.4          59566
- vtowfk(ssdiag)         2.304   8.5      2.301   8.5             -1
- pspini                 2.262   8.3      2.262   8.3              1
- projbd                 1.169   4.3      1.165   4.3          45766
- pawdenpot              1.145   4.2      1.149   4.2             21
- xc:pot/=fourdp         1.144   4.2      1.151   4.2            254
- nonlop(forces)         0.796   2.9      0.801   2.9          12600
- getghc-other           0.750   2.8      0.757   2.8             -1
- fourwf(den)            0.632   2.3      0.629   2.3           6720
- pawinit                0.460   1.7      0.458   1.7              2
- timing timab           0.341   1.3      0.340   1.2             11
- vtowfk(contrib)        0.335   1.2      0.338   1.2            420
- status                 0.274   1.0      0.258   0.9           7344
- fourdp                 0.186   0.7      0.184   0.7            777
- forces                 0.171   0.6      0.169   0.6             21
- vtorho:mknhat          0.137   0.5      0.137   0.5             21
- 53   others            0.826   3.0      0.802   2.9

- subtotal              26.502  97.3     26.436  97.1

================================================================================

 Calculation completed.
.Delivered    0 WARNINGs and   1 COMMENTs to log file.
+Overall time at end (sec) : cpu=         27.2  wall=         27.2
