
.Version 5.6.3  of ABINIT 
.(sequential version, prepared for a x86_64_linux_gcc4.3 computer) 

.Copyright (C) 1998-2008 ABINIT group . 
 ABINIT comes with ABSOLUTELY NO WARRANTY.
 It is free software, and you are welcome to redistribute it
 under certain conditions (GNU General Public License,
 see ~abinit/COPYING or http://www.gnu.org/copyleft/gpl.txt).

 ABINIT is a project of the Universite Catholique de Louvain,
 Corning Inc. and other collaborators, see ~abinit/doc/developers/contributors.txt .
 Please read ~abinit/doc/users/acknowledgments.html for suggested
 acknowledgments of the ABINIT effort.
 For more information, see http://www.abinit.org .

.Starting date : Thu  6 Nov 2008.
  
- input  file    -> /home/gonze/ABINIT/ABINITv5.6.3/test_gcc43/5.6.3-private/tests/v5/Input/t19.in
- output file    -> t19.out
- root for input  files -> t19i
- root for output files -> t19o


 Symmetries : space group Fm -3 m (#225); Bravais cF (face-center cubic)
================================================================================
 Values of the parameters that define the memory need of the present run
   intxc =         0  ionmov =         0    iscf =        17 xclevel =         1
  lmnmax =        32   lnmax =         8   mband =        20  mffmem =         1
P  mgfft =        15   mkmem =         2 mpssoang=         4     mpw =        90
  mqgrid =      3001   natom =         1    nfft =      3375    nkpt =         2
  nloalg =         4  nspden =         2 nspinor =         1  nsppol =         2
    nsym =        48  n1xccc =         1  ntypat =         1  occopt =         7
 PAW method is used; the additional fine FFT grid is defined by:
   mgfftf=        18    nfftf =      5832
================================================================================
P This job should need less than                      12.781 Mbytes of memory.
  Rough estimation (10% accuracy) of disk space for files :
  WF disk file :      0.112 Mbytes ; DEN or POT disk file :      0.091 Mbytes.
================================================================================

 -outvars: echo values of preprocessed input variables --------
     acell    7.4000000000E+00  7.4000000000E+00  7.4000000000E+00 Bohr
       amu    1.57250000E+02
      ecut    7.00000000E+00 Hartree
    getwfk        -1
       ixc         7
       kpt   -2.50000000E-01  5.00000000E-01  0.00000000E+00
             -2.50000000E-01  0.00000000E+00  0.00000000E+00
   kptrlen    1.48000000E+01
    kptopt         1
  kptrlatt    2 -2  2  -2  2  2  -2 -2  2
P    mkmem         2
     natom         1
     nband        20
     ngfft        15      15      15
   ngfftdg        18      18      18
      nkpt         2
    nspden         2
    nsppol         2
      nsym        48
    ntypat         1
       occ    1.000000  1.000000  1.000000  1.000000  1.000000  1.000000
              1.000000  1.000000  1.000000  0.000000  0.000000  0.000000
              0.000000  0.000000  0.000000  0.000000  0.000000  0.000000
              0.000000  0.000000
              1.000000  1.000000  1.000000  1.000000  1.000000  1.000000
              1.000000  1.000000  1.000000  0.000000  0.000000  0.000000
              0.000000  0.000000  0.000000  0.000000  0.000000  0.000000
              0.000000  0.000000
              1.000000  1.000000  1.000000  1.000000  1.000000  1.000000
              1.000000  1.000000  1.000000  0.000000  0.000000  0.000000
              0.000000  0.000000  0.000000  0.000000  0.000000  0.000000
              0.000000  0.000000
              1.000000  1.000000  1.000000  1.000000  1.000000  1.000000
              1.000000  1.000000  1.000000  0.000000  0.000000  0.000000
              0.000000  0.000000  0.000000  0.000000  0.000000  0.000000
              0.000000  0.000000
    occopt         7
 pawecutdg    1.20000000E+01 Hartree
 pawprtvol         2
 dmatudiag         1
 usedmatpu        10
   usepawu         1
     jpawu    3.68000000E-02
     lpawu         3
     upawu    2.20000000E-01
  dmatpawu    1.00000000E+00  0.00000000E+00  0.00000000E+00
              0.00000000E+00  0.00000000E+00  0.00000000E+00
              0.00000000E+00  0.00000000E+00  1.00000000E+00
              0.00000000E+00  0.00000000E+00  0.00000000E+00
              0.00000000E+00  0.00000000E+00  0.00000000E+00
              0.00000000E+00  1.00000000E+00  0.00000000E+00
              0.00000000E+00  0.00000000E+00  0.00000000E+00
              0.00000000E+00  0.00000000E+00  0.00000000E+00
              1.00000000E+00  0.00000000E+00  0.00000000E+00
              0.00000000E+00  0.00000000E+00  0.00000000E+00
              0.00000000E+00  0.00000000E+00  1.00000000E+00
              0.00000000E+00  0.00000000E+00  0.00000000E+00
              0.00000000E+00  0.00000000E+00  0.00000000E+00
              0.00000000E+00  1.00000000E+00  0.00000000E+00
              0.00000000E+00  0.00000000E+00  0.00000000E+00
              0.00000000E+00  0.00000000E+00  0.00000000E+00
              1.00000000E+00  0.00000000E+00  0.00000000E+00
              0.00000000E+00  0.00000000E+00  0.00000000E+00
              0.00000000E+00  0.00000000E+00  0.00000000E+00
              0.00000000E+00  0.00000000E+00  0.00000000E+00
              0.00000000E+00  0.00000000E+00  0.00000000E+00
              0.00000000E+00  0.00000000E+00  0.00000000E+00
              0.00000000E+00  0.00000000E+00  0.00000000E+00
              0.00000000E+00  0.00000000E+00  0.00000000E+00
              0.00000000E+00  0.00000000E+00  0.00000000E+00
              0.00000000E+00  0.00000000E+00  0.00000000E+00
              0.00000000E+00  0.00000000E+00  0.00000000E+00
              0.00000000E+00  0.00000000E+00  0.00000000E+00
              0.00000000E+00  0.00000000E+00  0.00000000E+00
              0.00000000E+00  0.00000000E+00  0.00000000E+00
              0.00000000E+00  0.00000000E+00  0.00000000E+00
              0.00000000E+00  0.00000000E+00  0.00000000E+00
              0.00000000E+00  0.00000000E+00
    prtvol         3
     rprim    0.0000000000E+00  5.0000000000E-01  5.0000000000E-01
              5.0000000000E-01  0.0000000000E+00  5.0000000000E-01
              5.0000000000E-01  5.0000000000E-01  0.0000000000E+00
    shiftk    5.00000000E-01  5.00000000E-01  5.00000000E-01
   spgroup       225
    spinat    0.0000000000E+00  0.0000000000E+00  1.0000000000E+00
    symrel    1  0  0   0  1  0   0  0  1      -1  0  0   0 -1  0   0  0 -1
              0 -1  1   0 -1  0   1 -1  0       0  1 -1   0  1  0  -1  1  0
             -1  0  0  -1  0  1  -1  1  0       1  0  0   1  0 -1   1 -1  0
              0  1 -1   1  0 -1   0  0 -1       0 -1  1  -1  0  1   0  0  1
             -1  0  0  -1  1  0  -1  0  1       1  0  0   1 -1  0   1  0 -1
              0 -1  1   1 -1  0   0 -1  0       0  1 -1  -1  1  0   0  1  0
              1  0  0   0  0  1   0  1  0      -1  0  0   0  0 -1   0 -1  0
              0  1 -1   0  0 -1   1  0 -1       0 -1  1   0  0  1  -1  0  1
             -1  0  1  -1  1  0  -1  0  0       1  0 -1   1 -1  0   1  0  0
              0 -1  0   1 -1  0   0 -1  1       0  1  0  -1  1  0   0  1 -1
              1  0 -1   0  0 -1   0  1 -1      -1  0  1   0  0  1   0 -1  1
              0  1  0   0  0  1   1  0  0       0 -1  0   0  0 -1  -1  0  0
              1  0 -1   0  1 -1   0  0 -1      -1  0  1   0 -1  1   0  0  1
              0 -1  0   0 -1  1   1 -1  0       0  1  0   0  1 -1  -1  1  0
             -1  0  1  -1  0  0  -1  1  0       1  0 -1   1  0  0   1 -1  0
              0  1  0   1  0  0   0  0  1       0 -1  0  -1  0  0   0  0 -1
              0  0 -1   0  1 -1   1  0 -1       0  0  1   0 -1  1  -1  0  1
              1 -1  0   0 -1  1   0 -1  0      -1  1  0   0  1 -1   0  1  0
              0  0  1   1  0  0   0  1  0       0  0 -1  -1  0  0   0 -1  0
             -1  1  0  -1  0  0  -1  0  1       1 -1  0   1  0  0   1  0 -1
              0  0  1   0  1  0   1  0  0       0  0 -1   0 -1  0  -1  0  0
              1 -1  0   0 -1  0   0 -1  1      -1  1  0   0  1  0   0  1 -1
              0  0 -1   1  0 -1   0  1 -1       0  0  1  -1  0  1   0 -1  1
             -1  1  0  -1  0  1  -1  0  0       1 -1  0   1  0 -1   1  0  0
    tolvrs    1.00000000E-05
    tsmear    5.00000000E-03 Hartree
     typat    1
    useylm         1
       wtk      0.75000    0.25000
     znucl     64.00000

================================================================================

 chkinp: Checking input parameters for consistency.

================================================================================
== DATASET  1 ==================================================================

 Real(R)+Recip(G) space primitive vectors, cartesian coordinates (Bohr,Bohr^-1):
 R(1)=  0.0000000  3.7000000  3.7000000  G(1)= -0.1351351  0.1351351  0.1351351
 R(2)=  3.7000000  0.0000000  3.7000000  G(2)=  0.1351351 -0.1351351  0.1351351
 R(3)=  3.7000000  3.7000000  0.0000000  G(3)=  0.1351351  0.1351351 -0.1351351
 Unit cell volume ucvol=  1.0130600E+02 bohr^3
 Angles (23,13,12)=  6.00000000E+01  6.00000000E+01  6.00000000E+01 degrees

 Coarse grid specifications (used for wave-functions):

 getcut: wavevector=  0.0000  0.0000  0.0000  ngfft=  15  15  15
         ecut(hartree)=      7.000   => boxcut(ratio)=   2.25788

 getcut : COMMENT -
  Note that boxcut > 2.2 ; recall that boxcut=Gcut(box)/Gcut(sphere) = 2
  is sufficient for exact treatment of convolution.
  Such a large boxcut is a waste : you could raise ecut
  e.g. ecut=    8.921574 Hartrees makes boxcut=2


 Fine grid specifications (used for densities):

 getcut: wavevector=  0.0000  0.0000  0.0000  ngfft=  18  18  18
         ecut(hartree)=     12.000   => boxcut(ratio)=   2.21277

 getcut : COMMENT -
  Note that boxcut > 2.2 ; recall that boxcut=Gcut(box)/Gcut(sphere) = 2
  is sufficient for exact treatment of convolution.
  Such a large boxcut is a waste : you could raise ecut
  e.g. ecut=   14.689057 Hartrees makes boxcut=2


--- Pseudopotential description ------------------------------------------------
- pspini: atom type   1  psp file is /home/gonze/ABINIT/ABINITv5.6.3/test_gcc43/5.6.3-private/tests/Psps_for_tests/64gd.paw
- pspatm: opening atomic psp file    /home/gonze/ABINIT/ABINITv5.6.3/test_gcc43/5.6.3-private/tests/Psps_for_tests/64gd.paw
 Paw atomic data for element Gd - Generated by AtomPAW (N. Holzwarth) + AtomPAW2Abinit v3.0.5
  64.00000  18.00000  20061212                znucl, zion, pspdat
    7    7    3    0       508   0.00000      pspcod,pspxc,lmax,lloc,mmax,r2well
 Pseudopotential format is: paw3
 basis_size (lnmax)=  8 (lmn_size= 32), orbitals=   0   0   1   1   2   2   3   3
 Spheres core radius: rc_sph= 2.53945782
 3 radial meshes are used:
  - mesh 1: r(i)=AA*[exp(BB*(i-1))-1], size= 508 , AA= 0.28076E-03 BB= 0.17969E-01
  - mesh 2: r(i)=AA*[exp(BB*(i-1))-1], size= 526 , AA= 0.28076E-03 BB= 0.17969E-01
  - mesh 3: r(i)=AA*[exp(BB*(i-1))-1], size= 584 , AA= 0.28076E-03 BB= 0.17969E-01
 Shapefunction is SIN type: shapef(r)=[sin(pi*r/rshp)/(pi*r/rshp)]**2
 Radius for shape functions = sphere core radius
 Radial grid used for partial waves is grid 1
 Radial grid used for projectors is grid 1
 Radial grid used for (t)core density is grid 2
 Radial grid used for Vloc is grid 3

 psp7in: WARNING -
  Atomic data could produce inaccurate results:
    Wavefunctions and pseudo-wavefunctions should
    be given on a radial mesh larger than the PAW
    spheres (at least 2 additional points) !
  Action: check your pseudopotential file.
 pspatm: atomic psp has been read  and splines computed

   1.01347208E+03                                ecore*ucvol(ha*bohr**3)
--------------------------------------------------------------------------------

P newkpt: treating     20 bands with npw=      90 for ikpt=   1
P newkpt: treating     20 bands with npw=      89 for ikpt=   2
P newkpt: treating     20 bands with npw=      90 for ikpt=   1
P newkpt: treating     20 bands with npw=      89 for ikpt=   2

 setup2: Arith. and geom. avg. npw (full set) are      89.750      89.749


******************************************
 LDA+U Method used: FLL
******************************************

================================================================================

     iter   Etot(hartree)     deltaE(h) residm    nres2   diffor   maxfor   magn
 ETOT  1  -116.44168290150    -1.16E+02 2.78E+00 1.80E+02 0.0E+00 0.00E+00 4.000
 ETOT  2  -118.43835734430    -2.00E+00 9.96E-02 2.71E+01 0.0E+00 0.00E+00 6.500
 ETOT  3  -115.47927304458     2.96E+00 1.11E+01 6.72E+01 0.0E+00 0.00E+00 4.000
 ETOT  4  -114.61972963272     8.60E-01 6.86E-01 5.72E+00 0.0E+00 0.00E+00 6.000
 ETOT  5  -114.66910225196    -4.94E-02 1.10E-02 1.16E+01 0.0E+00 0.00E+00 5.611
 ETOT  6  -115.09655650622    -4.27E-01 2.02E-01 2.68E+00 0.0E+00 0.00E+00 6.869
 ETOT  7  -114.01699406716     1.08E+00 1.11E+00 2.81E+01 0.0E+00 0.00E+00 4.000
 ETOT  8  -113.36503389414     6.52E-01 3.56E-01 1.20E+00 0.0E+00 0.00E+00 6.721
 ETOT  9  -113.15422262394     2.11E-01 1.06E-03 1.17E+00 0.0E+00 0.00E+00 6.850
 ETOT 10  -112.91271108937     2.42E-01 6.54E-03 8.21E-01 0.0E+00 0.00E+00 7.500
 ETOT 11  -112.60746844877     3.05E-01 2.53E-02 3.20E-01 0.0E+00 0.00E+00 7.500
 ETOT 12  -112.62661829523    -1.91E-02 5.72E-02 4.34E-01 0.0E+00 0.00E+00 7.500
 ETOT 13  -112.65943700619    -3.28E-02 2.95E-02 1.87E+00 0.0E+00 0.00E+00 7.500
 ETOT 14  -112.66810014489    -8.66E-03 4.81E-04 2.18E+00 0.0E+00 0.00E+00 7.500
 ETOT 15  -112.64327290765     2.48E-02 7.94E-03 1.28E+00 0.0E+00 0.00E+00 7.500
 ETOT 16  -112.62023614832     2.30E-02 1.62E-02 6.38E-01 0.0E+00 0.00E+00 7.500
 ETOT 17  -112.61555226687     4.68E-03 1.43E-03 4.20E-01 0.0E+00 0.00E+00 7.500
 ETOT 18  -112.60979670767     5.76E-03 6.40E-02 3.54E-02 0.0E+00 0.00E+00 7.500
 ETOT 19  -112.61243055446    -2.63E-03 4.19E-03 2.72E-03 0.0E+00 0.00E+00 7.500
 ETOT 20  -112.61139590283     1.03E-03 6.81E-04 8.58E-03 0.0E+00 0.00E+00 7.500
 ETOT 21  -112.61321026365    -1.81E-03 6.60E-04 4.09E-03 0.0E+00 0.00E+00 7.500
 ETOT 22  -112.61435039364    -1.14E-03 2.20E-03 2.30E-03 0.0E+00 0.00E+00 7.500
 ETOT 23  -112.61432828707     2.21E-05 1.33E-04 2.07E-04 0.0E+00 0.00E+00 7.500
 ETOT 24  -112.61433814430    -9.86E-06 5.66E-06 3.07E-04 0.0E+00 0.00E+00 7.500
 ETOT 25  -112.61433561076     2.53E-06 9.54E-06 4.00E-05 0.0E+00 0.00E+00 7.500
 ETOT 26  -112.61433522398     3.87E-07 2.18E-07 6.84E-06 0.0E+00 0.00E+00 7.500

 At SCF step   26       nres2   =  6.84E-06 < tolvrs=  1.00E-05 =>converged.

 Cartesian components of stress tensor (hartree/bohr^3)
  sigma(1 1)=  5.01920591E-03  sigma(3 2)=  0.00000000E+00
  sigma(2 2)=  5.01920591E-03  sigma(3 1)=  0.00000000E+00
  sigma(3 3)=  5.01920591E-03  sigma(2 1)=  0.00000000E+00


 PAW TEST:
 ==== Compensation charge inside spheres ============
 The following values must be close to each other ...
 Compensation charge over spherical meshes =      6.871774129264546
 Compensation charge over fine fft grid    =      6.872274461992629

 ==== Results concerning PAW augmentation regions ====

 Total pseudopotential strength Dij (hartree):
 Atom #  1 - Spin component 1
   1.09521  -0.30786   0.00000   0.00000   0.00000   0.00000   0.00000   0.00000   0.00000   0.00000   0.00000   0.00000 ...
  -0.30786   0.10967   0.00000   0.00000   0.00000   0.00000   0.00000   0.00000   0.00000   0.00000   0.00000   0.00000 ...
   0.00000   0.00000   0.20467   0.00000   0.00000  -0.19239   0.00000   0.00000   0.00000   0.00000   0.00000   0.00000 ...
   0.00000   0.00000   0.00000   0.20467   0.00000   0.00000  -0.19239   0.00000   0.00000   0.00000   0.00000   0.00000 ...
   0.00000   0.00000   0.00000   0.00000   0.20467   0.00000   0.00000  -0.19239   0.00000   0.00000   0.00000   0.00000 ...
   0.00000   0.00000  -0.19239   0.00000   0.00000   0.53752   0.00000   0.00000   0.00000   0.00000   0.00000   0.00000 ...
   0.00000   0.00000   0.00000  -0.19239   0.00000   0.00000   0.53752   0.00000   0.00000   0.00000   0.00000   0.00000 ...
   0.00000   0.00000   0.00000   0.00000  -0.19239   0.00000   0.00000   0.53752   0.00000   0.00000   0.00000   0.00000 ...
   0.00000   0.00000   0.00000   0.00000   0.00000   0.00000   0.00000   0.00000   0.09472   0.00000   0.00000   0.00000 ...
   0.00000   0.00000   0.00000   0.00000   0.00000   0.00000   0.00000   0.00000   0.00000   0.09472   0.00000   0.00000 ...
   0.00000   0.00000   0.00000   0.00000   0.00000   0.00000   0.00000   0.00000   0.00000   0.00000   0.09479   0.00000 ...
   0.00000   0.00000   0.00000   0.00000   0.00000   0.00000   0.00000   0.00000   0.00000   0.00000   0.00000   0.09472 ...
   ...  only 12  components have been written...
 Atom #  1 - Spin component 2
   0.93707  -0.27972   0.00000   0.00000   0.00000   0.00000   0.00000   0.00000   0.00000   0.00000   0.00000   0.00000 ...
  -0.27972   0.09818   0.00000   0.00000   0.00000   0.00000   0.00000   0.00000   0.00000   0.00000   0.00000   0.00000 ...
   0.00000   0.00000   0.14664   0.00000   0.00000  -0.20943   0.00000   0.00000   0.00000   0.00000   0.00000   0.00000 ...
   0.00000   0.00000   0.00000   0.14664   0.00000   0.00000  -0.20943   0.00000   0.00000   0.00000   0.00000   0.00000 ...
   0.00000   0.00000   0.00000   0.00000   0.14664   0.00000   0.00000  -0.20943   0.00000   0.00000   0.00000   0.00000 ...
   0.00000   0.00000  -0.20943   0.00000   0.00000   0.53952   0.00000   0.00000   0.00000   0.00000   0.00000   0.00000 ...
   0.00000   0.00000   0.00000  -0.20943   0.00000   0.00000   0.53952   0.00000   0.00000   0.00000   0.00000   0.00000 ...
   0.00000   0.00000   0.00000   0.00000  -0.20943   0.00000   0.00000   0.53952   0.00000   0.00000   0.00000   0.00000 ...
   0.00000   0.00000   0.00000   0.00000   0.00000   0.00000   0.00000   0.00000   0.06845   0.00000   0.00000   0.00000 ...
   0.00000   0.00000   0.00000   0.00000   0.00000   0.00000   0.00000   0.00000   0.00000   0.06845   0.00000   0.00000 ...
   0.00000   0.00000   0.00000   0.00000   0.00000   0.00000   0.00000   0.00000   0.00000   0.00000   0.06854   0.00000 ...
   0.00000   0.00000   0.00000   0.00000   0.00000   0.00000   0.00000   0.00000   0.00000   0.00000   0.00000   0.06845 ...
   ...  only 12  components have been written...


 Augmentation waves occupancies Rhoij:
 Atom #  1 - Spin component 1
   0.96779  -0.07764   0.00000   0.00000   0.00000   0.00000   0.00000   0.00000   0.00000   0.00000   0.00000   0.00000 ...
  -0.07764   0.75871   0.00000   0.00000   0.00000   0.00000   0.00000   0.00000   0.00000   0.00000   0.00000   0.00000 ...
   0.00000   0.00000   0.98398   0.00000   0.00000  -0.01448   0.00000   0.00000   0.00000   0.00000   0.00000   0.00000 ...
   0.00000   0.00000   0.00000   0.98398   0.00000   0.00000  -0.01448   0.00000   0.00000   0.00000   0.00000   0.00000 ...
   0.00000   0.00000   0.00000   0.00000   0.98398   0.00000   0.00000  -0.01448   0.00000   0.00000   0.00000   0.00000 ...
   0.00000   0.00000  -0.01448   0.00000   0.00000   0.01586   0.00000   0.00000   0.00000   0.00000   0.00000   0.00000 ...
   0.00000   0.00000   0.00000  -0.01448   0.00000   0.00000   0.01586   0.00000   0.00000   0.00000   0.00000   0.00000 ...
   0.00000   0.00000   0.00000   0.00000  -0.01448   0.00000   0.00000   0.01586   0.00000   0.00000   0.00000   0.00000 ...
   0.00000   0.00000   0.00000   0.00000   0.00000   0.00000   0.00000   0.00000   0.45276   0.00000   0.00000   0.00000 ...
   0.00000   0.00000   0.00000   0.00000   0.00000   0.00000   0.00000   0.00000   0.00000   0.45276   0.00000   0.00000 ...
   0.00000   0.00000   0.00000   0.00000   0.00000   0.00000   0.00000   0.00000   0.00000   0.00000   0.45685   0.00000 ...
   0.00000   0.00000   0.00000   0.00000   0.00000   0.00000   0.00000   0.00000   0.00000   0.00000   0.00000   0.45276 ...
   ...  only 12  components have been written...
 Atom #  1 - Spin component 2
   1.02680   0.10708   0.00000   0.00000   0.00000   0.00000   0.00000   0.00000   0.00000   0.00000   0.00000   0.00000 ...
   0.10708   0.70167   0.00000   0.00000   0.00000   0.00000   0.00000   0.00000   0.00000   0.00000   0.00000   0.00000 ...
   0.00000   0.00000   0.97852   0.00000   0.00000   0.03281   0.00000   0.00000   0.00000   0.00000   0.00000   0.00000 ...
   0.00000   0.00000   0.00000   0.97852   0.00000   0.00000   0.03281   0.00000   0.00000   0.00000   0.00000   0.00000 ...
   0.00000   0.00000   0.00000   0.00000   0.97852   0.00000   0.00000   0.03281   0.00000   0.00000   0.00000   0.00000 ...
   0.00000   0.00000   0.03281   0.00000   0.00000   0.00674   0.00000   0.00000   0.00000   0.00000   0.00000   0.00000 ...
   0.00000   0.00000   0.00000   0.03281   0.00000   0.00000   0.00674   0.00000   0.00000   0.00000   0.00000   0.00000 ...
   0.00000   0.00000   0.00000   0.00000   0.03281   0.00000   0.00000   0.00674   0.00000   0.00000   0.00000   0.00000 ...
   0.00000   0.00000   0.00000   0.00000   0.00000   0.00000   0.00000   0.00000   0.32234   0.00000   0.00000   0.00000 ...
   0.00000   0.00000   0.00000   0.00000   0.00000   0.00000   0.00000   0.00000   0.00000   0.32234   0.00000   0.00000 ...
   0.00000   0.00000   0.00000   0.00000   0.00000   0.00000   0.00000   0.00000   0.00000   0.00000   0.33235   0.00000 ...
   0.00000   0.00000   0.00000   0.00000   0.00000   0.00000   0.00000   0.00000   0.00000   0.00000   0.00000   0.32234 ...
   ...  only 12  components have been written...

 "PAW+U" part of augmentation waves occupancies Rhoij:
 Atom #  1 - L=3 ONLY - Spin component 1
   1.00832   0.00000   0.00124   0.00000   0.00000   0.00000   0.00000   0.02649   0.00000  -0.00156   0.00000   0.00000   0.00000   0.00000
   0.00000   1.00967   0.00000   0.00000   0.00000   0.00000   0.00000   0.00000   0.02850   0.00000   0.00000   0.00000   0.00000   0.00000
   0.00124   0.00000   1.00768   0.00000   0.00000   0.00000   0.00000  -0.00156   0.00000   0.02730   0.00000   0.00000   0.00000   0.00000
   0.00000   0.00000   0.00000   1.00928   0.00000   0.00000   0.00000   0.00000   0.00000   0.00000   0.02528   0.00000   0.00000   0.00000
   0.00000   0.00000   0.00000   0.00000   1.00768   0.00000  -0.00124   0.00000   0.00000   0.00000   0.00000   0.02730   0.00000   0.00156
   0.00000   0.00000   0.00000   0.00000   0.00000   1.00671   0.00000   0.00000   0.00000   0.00000   0.00000   0.00000   0.02851   0.00000
   0.00000   0.00000   0.00000   0.00000  -0.00124   0.00000   1.00832   0.00000   0.00000   0.00000   0.00000   0.00156   0.00000   0.02649
   0.02649   0.00000  -0.00156   0.00000   0.00000   0.00000   0.00000   0.00628   0.00000   0.00182   0.00000   0.00000   0.00000   0.00000
   0.00000   0.02850   0.00000   0.00000   0.00000   0.00000   0.00000   0.00000   0.00973   0.00000   0.00000   0.00000   0.00000   0.00000
  -0.00156   0.00000   0.02730   0.00000   0.00000   0.00000   0.00000   0.00182   0.00000   0.00534   0.00000   0.00000   0.00000   0.00000
   0.00000   0.00000   0.00000   0.02528   0.00000   0.00000   0.00000   0.00000   0.00000   0.00000   0.00769   0.00000   0.00000   0.00000
   0.00000   0.00000   0.00000   0.00000   0.02730   0.00000   0.00156   0.00000   0.00000   0.00000   0.00000   0.00534   0.00000  -0.00182
   0.00000   0.00000   0.00000   0.00000   0.00000   0.02851   0.00000   0.00000   0.00000   0.00000   0.00000   0.00000   0.00393   0.00000
   0.00000   0.00000   0.00000   0.00000   0.00156   0.00000   0.02649   0.00000   0.00000   0.00000   0.00000  -0.00182   0.00000   0.00628
 Atom #  1 - L=3 ONLY - Spin component 2
   0.00695   0.00000   0.00313   0.00000   0.00000   0.00000   0.00000   0.00465   0.00000   0.00210   0.00000   0.00000   0.00000   0.00000
   0.00000   0.01726   0.00000   0.00000   0.00000   0.00000   0.00000   0.00000   0.01013   0.00000   0.00000   0.00000   0.00000   0.00000
   0.00313   0.00000   0.00534   0.00000   0.00000   0.00000   0.00000   0.00210   0.00000   0.00357   0.00000   0.00000   0.00000   0.00000
   0.00000   0.00000   0.00000   0.00937   0.00000   0.00000   0.00000   0.00000   0.00000   0.00000   0.00628   0.00000   0.00000   0.00000
   0.00000   0.00000   0.00000   0.00000   0.00534   0.00000  -0.00313   0.00000   0.00000   0.00000   0.00000   0.00357   0.00000  -0.00210
   0.00000   0.00000   0.00000   0.00000   0.00000   0.00291   0.00000   0.00000   0.00000   0.00000   0.00000   0.00000   0.00194   0.00000
   0.00000   0.00000   0.00000   0.00000  -0.00313   0.00000   0.00695   0.00000   0.00000   0.00000   0.00000  -0.00210   0.00000   0.00465
   0.00465   0.00000   0.00210   0.00000   0.00000   0.00000   0.00000   0.00375   0.00000   0.00122   0.00000   0.00000   0.00000   0.00000
   0.00000   0.01013   0.00000   0.00000   0.00000   0.00000   0.00000   0.00000   0.00691   0.00000   0.00000   0.00000   0.00000   0.00000
   0.00210   0.00000   0.00357   0.00000   0.00000   0.00000   0.00000   0.00122   0.00000   0.00312   0.00000   0.00000   0.00000   0.00000
   0.00000   0.00000   0.00000   0.00628   0.00000   0.00000   0.00000   0.00000   0.00000   0.00000   0.00470   0.00000   0.00000   0.00000
   0.00000   0.00000   0.00000   0.00000   0.00357   0.00000  -0.00210   0.00000   0.00000   0.00000   0.00000   0.00312   0.00000  -0.00122
   0.00000   0.00000   0.00000   0.00000   0.00000   0.00194   0.00000   0.00000   0.00000   0.00000   0.00000   0.00000   0.00218   0.00000
   0.00000   0.00000   0.00000   0.00000  -0.00210   0.00000   0.00465   0.00000   0.00000   0.00000   0.00000  -0.00122   0.00000   0.00375

---------- LDA+U DATA ---------------------------------------------------

====== For Atom    1, occupations for correlated orbitals. lpawu =   3

Atom   1. Occ. for lpawu and for spin  1 =   7.00228
Atom   1. Occ. for lpawu and for spin  2 =   0.07455
=> On atom   1,  local Mag. for lpawu is    -0.69277335E+01

== Occupation matrix for correlated orbitals:

Occupation matrix for spin  1
     1.00039    0.00000    0.00302    0.00000    0.00000    0.00000    0.00000
     0.00000    1.00462    0.00000    0.00000    0.00000    0.00000    0.00000
     0.00302    0.00000    0.99883    0.00000    0.00000    0.00000    0.00000
     0.00000    0.00000    0.00000    1.00273    0.00000    0.00000    0.00000
     0.00000    0.00000    0.00000    0.00000    0.99883    0.00000   -0.00302
     0.00000    0.00000    0.00000    0.00000    0.00000    0.99649    0.00000
     0.00000    0.00000    0.00000    0.00000   -0.00302    0.00000    1.00039


Occupation matrix for spin  2
     0.00962    0.00000    0.00405    0.00000    0.00000    0.00000    0.00000
     0.00000    0.02311    0.00000    0.00000    0.00000    0.00000    0.00000
     0.00405    0.00000    0.00753    0.00000    0.00000    0.00000    0.00000
     0.00000    0.00000    0.00000    0.01276    0.00000    0.00000    0.00000
     0.00000    0.00000    0.00000    0.00000    0.00753    0.00000   -0.00405
     0.00000    0.00000    0.00000    0.00000    0.00000    0.00439    0.00000
     0.00000    0.00000    0.00000    0.00000   -0.00405    0.00000    0.00962



================================================================================

 ----iterations are completed or convergence reached----

 Mean square residual over all n,k,spin=   5.8119E-08; max=  2.1763E-07
  -0.2500  0.5000  0.0000    1  1.70419E-07 kpt; spin; max resid(k); each band:
 6.03E-09 8.45E-09 2.62E-09 5.72E-09 4.68E-08 1.16E-08 4.64E-08 5.88E-10
 3.90E-08 4.18E-08 4.33E-09 8.62E-08 7.82E-08 5.98E-08 4.77E-08 4.21E-09
 5.86E-08 5.08E-08 7.62E-08 1.70E-07
  -0.2500  0.0000  0.0000    1  2.02121E-07 kpt; spin; max resid(k); each band:
 6.29E-09 3.88E-09 7.23E-10 4.71E-10 5.18E-08 1.84E-08 3.70E-09 1.21E-08
 2.37E-09 5.40E-08 5.94E-12 7.22E-08 1.66E-08 2.05E-08 4.07E-08 2.74E-08
 4.27E-08 2.02E-07 1.55E-07 9.73E-08
  -0.2500  0.5000  0.0000    2  2.17628E-07 kpt; spin; max resid(k); each band:
 8.03E-09 1.16E-08 4.33E-09 9.51E-09 1.77E-08 4.57E-08 1.94E-07 2.29E-08
 5.53E-08 8.38E-09 1.61E-07 2.19E-08 9.67E-08 1.85E-07 1.40E-07 9.35E-09
 6.58E-08 3.31E-08 9.10E-08 2.18E-07
  -0.2500  0.0000  0.0000    2  1.69600E-07 kpt; spin; max resid(k); each band:
 8.77E-09 5.01E-09 1.96E-09 1.75E-09 6.73E-09 1.16E-07 1.59E-07 9.46E-08
 9.82E-08 1.07E-07 1.58E-07 3.04E-11 1.06E-07 1.70E-07 2.94E-08 8.69E-08
 8.42E-08 1.69E-07 7.37E-08 1.02E-07
 reduced coordinates (array xred) for    1 atoms
       0.000000000000      0.000000000000      0.000000000000
 rms dE/dt=  0.0000E+00; max dE/dt=  0.0000E+00; dE/dt below (all hartree)
    1       0.000000000000      0.000000000000      0.000000000000

 cartesian coordinates (angstrom) at end:
    1      0.00000000000000     0.00000000000000     0.00000000000000

 cartesian forces (hartree/bohr) at end:
    1     -0.00000000000000    -0.00000000000000    -0.00000000000000
 frms,max,avg= 0.0000000E+00 0.0000000E+00   0.000E+00  0.000E+00  0.000E+00 h/b

 cartesian forces (eV/Angstrom) at end:
    1     -0.00000000000000    -0.00000000000000    -0.00000000000000
 frms,max,avg= 0.0000000E+00 0.0000000E+00   0.000E+00  0.000E+00  0.000E+00 e/A
 length scales=  7.400000000000  7.400000000000  7.400000000000 bohr
              =  3.915911343566  3.915911343566  3.915911343566 angstroms
 prteigrs : about to open file t19o_EIG
 Fermi (or HOMO) energy (hartree) =   0.60678   Average Vxc (hartree)=  -0.54313
 Magnetisation (Bohr magneton)=  7.50000000E+00
 Total spin up =  1.27500000E+01   Total spin down =  5.25000000E+00
 Eigenvalues (hartree) for nkpt=   2  k points, SPIN UP:
 kpt#   1, nband= 20, wtk=  0.75000, kpt= -0.2500  0.5000  0.0000 (reduced coord)
  -1.04215  -0.32006  -0.23346  -0.19284   0.33773   0.33817   0.34436   0.34679
   0.34956   0.35210   0.35934   0.47416   0.56899   0.72978   0.77177   1.02763
   1.09561   1.24438   1.28110   1.38074
      occupation numbers for kpt#   1
   1.00000   1.00000   1.00000   1.00000   1.00000   1.00000   1.00000   1.00000
   1.00000   1.00000   1.00000   1.00000   1.00000   0.00000   0.00000   0.00000
   0.00000   0.00000   0.00000   0.00000
 kpt#   2, nband= 20, wtk=  0.25000, kpt= -0.2500  0.0000  0.0000 (reduced coord)
  -1.07413  -0.25891  -0.15384  -0.15384   0.33284   0.34530   0.34530   0.35016
   0.35016   0.35265   0.36449   0.49751   0.66935   0.66935   0.68487   0.84045
   0.84045   1.06188   1.29500   1.47591
      occupation numbers for kpt#   2
   1.00000   1.00000   1.00000   1.00000   1.00000   1.00000   1.00000   1.00000
   1.00000   1.00000   1.00000   1.00000   0.00000   0.00000   0.00000   0.00000
   0.00000   0.00000   0.00000   0.00000
 Eigenvalues (hartree) for nkpt=   2  k points, SPIN DOWN:
 kpt#   1, nband= 20, wtk=  0.75000, kpt= -0.2500  0.5000  0.0000 (reduced coord)
  -0.92597  -0.24118  -0.14665  -0.09969   0.50680   0.60830   0.68628   0.69975
   0.71341   0.71569   0.71598   0.71821   0.72758   0.81373   0.84974   1.09958
   1.18382   1.32864   1.39218   1.51559
      occupation numbers for kpt#   1
   1.00000   1.00000   1.00000   1.00000   1.00000   0.33333   0.00000   0.00000
   0.00000   0.00000   0.00000   0.00000   0.00000   0.00000   0.00000   0.00000
   0.00000   0.00000   0.00000   0.00000
 kpt#   2, nband= 20, wtk=  0.25000, kpt= -0.2500  0.0000  0.0000 (reduced coord)
  -0.96273  -0.17429  -0.05655  -0.05655   0.53873   0.68209   0.68855   0.68855
   0.69452   0.70134   0.70134   0.73721   0.75014   0.75014   0.77180   0.91826
   0.91826   1.18723   1.41455   1.59934
      occupation numbers for kpt#   2
   1.00000   1.00000   1.00000   1.00000   1.00000   0.00000   0.00000   0.00000
   0.00000   0.00000   0.00000   0.00000   0.00000   0.00000   0.00000   0.00000
   0.00000   0.00000   0.00000   0.00000
 Total charge density [el/Bohr^3]
,     Maximum=    1.0357E+00  at reduced coord.    0.0000    0.0000    0.0000
,Next maximum=    1.0177E+00  at reduced coord.    0.0000    0.0556    0.9444
,     Minimum=    3.5618E-02  at reduced coord.    0.5556    0.5556    0.2778
,Next minimum=    3.5618E-02  at reduced coord.    0.6111    0.5556    0.2778
 Spin up density      [el/Bohr^3]
,     Maximum=    8.3369E-01  at reduced coord.    0.0000    0.0000    0.0000
,Next maximum=    8.1159E-01  at reduced coord.    0.0000    0.0556    0.9444
,     Minimum=    2.0281E-02  at reduced coord.    0.6111    0.6111    0.1667
,Next minimum=    2.0281E-02  at reduced coord.    0.3889    0.3889    0.3889
 Spin down density    [el/Bohr^3]
,     Maximum=    2.0975E-01  at reduced coord.    0.0000    0.1111    0.8889
,Next maximum=    2.0975E-01  at reduced coord.    0.1111    0.0000    0.8889
,     Minimum=    1.5297E-02  at reduced coord.    0.5556    0.5556    0.2778
,Next minimum=    1.5297E-02  at reduced coord.    0.6111    0.5556    0.2778
 Magnetization (spin up - spin down) [el/Bohr^3]
,     Maximum=    6.3164E-01  at reduced coord.    0.0000    0.0000    0.0000
,Next maximum=    6.0553E-01  at reduced coord.    0.0000    0.0556    0.9444
,     Minimum=    3.8155E-03  at reduced coord.    0.5000    0.5000    0.1111
,Next minimum=    3.8155E-03  at reduced coord.    0.8889    0.5000    0.1111
 Relative magnetization (=zeta, between -1 and 1)
,     Maximum=    6.0985E-01  at reduced coord.    0.0000    0.0000    0.0000
,Next maximum=    5.9503E-01  at reduced coord.    0.0000    0.0556    0.9444
,     Minimum=    8.4659E-02  at reduced coord.    0.5000    0.0000    0.0000
,Next minimum=    8.4659E-02  at reduced coord.    0.0000    0.5000    0.0000

--------------------------------------------------------------------------------
 Components of total free energy (in Hartree) :

    Kinetic energy  =  1.16249513744312E+01
    Hartree energy  =  1.24464481830690E+01
    XC energy       = -1.09339786867955E+01
    Ewald energy    = -1.00371304865735E+02
    PspCore energy  =  1.00040676772558E+01
    Loc. psp. energy= -4.15391011776857E+01
    Spherical terms =  6.15483451790986E+00
    >>>>> Internal E= -1.12614082977550E+02

    -kT*entropy     = -9.64139498665245E-04
    >>>>>>>>> Etotal= -1.12615047117049E+02

 "Double-counting" decomposition of free energy:
    Band energy     =  8.80657854853737E-01
    Ewald energy    = -1.00371304865735E+02
    PspCore energy  =  1.00040676772558E+01
    Dble-C XC-energy= -9.01968325247863E+00
    Spherical terms = -1.41071084983754E+01
    >>>>> Internal E= -1.12613371084479E+02

    -kT*entropy     = -9.64139498665245E-04
    >>>> Etotal (DC)= -1.12614335223978E+02

  >Total energy in eV           = -3.06441127551400E+03
  >Total DC energy in eV        = -3.06439190391839E+03
--------------------------------------------------------------------------------

 Cartesian components of stress tensor (hartree/bohr^3)
  sigma(1 1)=  5.01920591E-03  sigma(3 2)=  0.00000000E+00
  sigma(2 2)=  5.01920591E-03  sigma(3 1)=  0.00000000E+00
  sigma(3 3)=  5.01920591E-03  sigma(2 1)=  0.00000000E+00

-Cartesian components of stress tensor (GPa)         [Pressure= -1.4767E+02 GPa]
- sigma(1 1)=  1.47670111E+02  sigma(3 2)=  0.00000000E+00
- sigma(2 2)=  1.47670111E+02  sigma(3 1)=  0.00000000E+00
- sigma(3 3)=  1.47670111E+02  sigma(2 1)=  0.00000000E+00

== END DATASET(S) ==============================================================
================================================================================
  
 -outvars: echo values of variables after computation  --------
     acell    7.4000000000E+00  7.4000000000E+00  7.4000000000E+00 Bohr
       amu    1.57250000E+02
      ecut    7.00000000E+00 Hartree
    etotal   -1.1261433522E+02
     fcart   -0.0000000000E+00 -0.0000000000E+00 -0.0000000000E+00
    getwfk        -1
       ixc         7
       kpt   -2.50000000E-01  5.00000000E-01  0.00000000E+00
             -2.50000000E-01  0.00000000E+00  0.00000000E+00
   kptrlen    1.48000000E+01
    kptopt         1
  kptrlatt    2 -2  2  -2  2  2  -2 -2  2
P    mkmem         2
     natom         1
     nband        20
     ngfft        15      15      15
   ngfftdg        18      18      18
      nkpt         2
    nspden         2
    nsppol         2
      nsym        48
    ntypat         1
       occ    1.000000  1.000000  1.000000  1.000000  1.000000  1.000000
              1.000000  1.000000  1.000000  1.000000  1.000000  1.000000
              1.000000  0.000000  0.000000  0.000000  0.000000  0.000000
              0.000000  0.000000
              1.000000  1.000000  1.000000  1.000000  1.000000  1.000000
              1.000000  1.000000  1.000000  1.000000  1.000000  1.000000
              0.000000  0.000000  0.000000  0.000000  0.000000  0.000000
              0.000000  0.000000
              1.000000  1.000000  1.000000  1.000000  1.000000  0.333333
              0.000000  0.000000  0.000000  0.000000  0.000000  0.000000
              0.000000  0.000000  0.000000  0.000000  0.000000  0.000000
              0.000000  0.000000
              1.000000  1.000000  1.000000  1.000000  1.000000  0.000000
              0.000000  0.000000  0.000000  0.000000  0.000000  0.000000
              0.000000  0.000000  0.000000  0.000000  0.000000  0.000000
              0.000000  0.000000
    occopt         7
 pawecutdg    1.20000000E+01 Hartree
 pawprtvol         2
 dmatudiag         1
 usedmatpu        10
   usepawu         1
     jpawu    3.68000000E-02
     lpawu         3
     upawu    2.20000000E-01
  dmatpawu    1.00000000E+00  0.00000000E+00  0.00000000E+00
              0.00000000E+00  0.00000000E+00  0.00000000E+00
              0.00000000E+00  0.00000000E+00  1.00000000E+00
              0.00000000E+00  0.00000000E+00  0.00000000E+00
              0.00000000E+00  0.00000000E+00  0.00000000E+00
              0.00000000E+00  1.00000000E+00  0.00000000E+00
              0.00000000E+00  0.00000000E+00  0.00000000E+00
              0.00000000E+00  0.00000000E+00  0.00000000E+00
              1.00000000E+00  0.00000000E+00  0.00000000E+00
              0.00000000E+00  0.00000000E+00  0.00000000E+00
              0.00000000E+00  0.00000000E+00  1.00000000E+00
              0.00000000E+00  0.00000000E+00  0.00000000E+00
              0.00000000E+00  0.00000000E+00  0.00000000E+00
              0.00000000E+00  1.00000000E+00  0.00000000E+00
              0.00000000E+00  0.00000000E+00  0.00000000E+00
              0.00000000E+00  0.00000000E+00  0.00000000E+00
              1.00000000E+00  0.00000000E+00  0.00000000E+00
              0.00000000E+00  0.00000000E+00  0.00000000E+00
              0.00000000E+00  0.00000000E+00  0.00000000E+00
              0.00000000E+00  0.00000000E+00  0.00000000E+00
              0.00000000E+00  0.00000000E+00  0.00000000E+00
              0.00000000E+00  0.00000000E+00  0.00000000E+00
              0.00000000E+00  0.00000000E+00  0.00000000E+00
              0.00000000E+00  0.00000000E+00  0.00000000E+00
              0.00000000E+00  0.00000000E+00  0.00000000E+00
              0.00000000E+00  0.00000000E+00  0.00000000E+00
              0.00000000E+00  0.00000000E+00  0.00000000E+00
              0.00000000E+00  0.00000000E+00  0.00000000E+00
              0.00000000E+00  0.00000000E+00  0.00000000E+00
              0.00000000E+00  0.00000000E+00  0.00000000E+00
              0.00000000E+00  0.00000000E+00  0.00000000E+00
              0.00000000E+00  0.00000000E+00  0.00000000E+00
              0.00000000E+00  0.00000000E+00
    prtvol         3
     rprim    0.0000000000E+00  5.0000000000E-01  5.0000000000E-01
              5.0000000000E-01  0.0000000000E+00  5.0000000000E-01
              5.0000000000E-01  5.0000000000E-01  0.0000000000E+00
    shiftk    5.00000000E-01  5.00000000E-01  5.00000000E-01
   spgroup       225
    spinat    0.0000000000E+00  0.0000000000E+00  1.0000000000E+00
    strten    5.0192059128E-03  5.0192059128E-03  5.0192059128E-03
              0.0000000000E+00  0.0000000000E+00  0.0000000000E+00
    symrel    1  0  0   0  1  0   0  0  1      -1  0  0   0 -1  0   0  0 -1
              0 -1  1   0 -1  0   1 -1  0       0  1 -1   0  1  0  -1  1  0
             -1  0  0  -1  0  1  -1  1  0       1  0  0   1  0 -1   1 -1  0
              0  1 -1   1  0 -1   0  0 -1       0 -1  1  -1  0  1   0  0  1
             -1  0  0  -1  1  0  -1  0  1       1  0  0   1 -1  0   1  0 -1
              0 -1  1   1 -1  0   0 -1  0       0  1 -1  -1  1  0   0  1  0
              1  0  0   0  0  1   0  1  0      -1  0  0   0  0 -1   0 -1  0
              0  1 -1   0  0 -1   1  0 -1       0 -1  1   0  0  1  -1  0  1
             -1  0  1  -1  1  0  -1  0  0       1  0 -1   1 -1  0   1  0  0
              0 -1  0   1 -1  0   0 -1  1       0  1  0  -1  1  0   0  1 -1
              1  0 -1   0  0 -1   0  1 -1      -1  0  1   0  0  1   0 -1  1
              0  1  0   0  0  1   1  0  0       0 -1  0   0  0 -1  -1  0  0
              1  0 -1   0  1 -1   0  0 -1      -1  0  1   0 -1  1   0  0  1
              0 -1  0   0 -1  1   1 -1  0       0  1  0   0  1 -1  -1  1  0
             -1  0  1  -1  0  0  -1  1  0       1  0 -1   1  0  0   1 -1  0
              0  1  0   1  0  0   0  0  1       0 -1  0  -1  0  0   0  0 -1
              0  0 -1   0  1 -1   1  0 -1       0  0  1   0 -1  1  -1  0  1
              1 -1  0   0 -1  1   0 -1  0      -1  1  0   0  1 -1   0  1  0
              0  0  1   1  0  0   0  1  0       0  0 -1  -1  0  0   0 -1  0
             -1  1  0  -1  0  0  -1  0  1       1 -1  0   1  0  0   1  0 -1
              0  0  1   0  1  0   1  0  0       0  0 -1   0 -1  0  -1  0  0
              1 -1  0   0 -1  0   0 -1  1      -1  1  0   0  1  0   0  1 -1
              0  0 -1   1  0 -1   0  1 -1       0  0  1  -1  0  1   0 -1  1
             -1  1  0  -1  0  1  -1  0  0       1 -1  0   1  0 -1   1  0  0
    tolvrs    1.00000000E-05
    tsmear    5.00000000E-03 Hartree
     typat    1
    useylm         1
       wtk      0.75000    0.25000
     znucl     64.00000

================================================================================

- Total cpu        time (s,m,h):          9.6        0.16      0.003
- Total wall clock time (s,m,h):          9.6        0.16      0.003

- For major independent code sections, cpu and wall times (sec),
- as well as % of the total time and number of calls 

- routine                 cpu     %       wall     %      number of calls 
-                                                          (-1=no count)
- pawinit                2.205  23.0      2.204  22.9              2
- fourwf(pot)            1.378  14.3      1.359  14.1           8490
- pspini                 1.059  11.0      1.059  11.0              1
- vtorho:rhoij           0.774   8.1      0.775   8.1             26
- vtorho(4)-mkrho-       0.613   6.4      0.615   6.4             78
- vtorho:mknhat          0.484   5.0      0.488   5.1             26
- nonlop(apply)          0.409   4.3      0.408   4.2           8490
- timing timab           0.360   3.7      0.360   3.7             11
- pawdij                 0.260   2.7      0.261   2.7             26
- pawdenpot              0.255   2.7      0.247   2.6             26
- vtowfk(ssdiag)         0.250   2.6      0.254   2.6             -1
- xc:pot/=fourdp         0.224   2.3      0.230   2.4            105
- forces                 0.196   2.0      0.198   2.1             26
- invars2                0.119   1.2      0.119   1.2              1
- fourdp                 0.113   1.2      0.101   1.1            650
- projbd                 0.112   1.2      0.122   1.3           6250
- getghc-other           0.112   1.2      0.115   1.2             -1
- fourwf(den)            0.086   0.9      0.090   0.9            982
- nonlop(forces)         0.085   0.9      0.088   0.9           2080
- nhatgrid               0.049   0.5      0.049   0.5              1
- vtorho  (1)            0.046   0.5      0.049   0.5             26
- 49   others            0.236   2.5      0.228   2.4

- subtotal               9.425  98.1      9.419  98.1

================================================================================

 Calculation completed.
.Delivered    1 WARNINGs and   3 COMMENTs to log file.
+Overall time at end (sec) : cpu=          9.6  wall=          9.6
