
.Version 5.6.3  of ABINIT 
.(sequential version, prepared for a x86_64_linux_gcc4.3 computer) 

.Copyright (C) 1998-2008 ABINIT group . 
 ABINIT comes with ABSOLUTELY NO WARRANTY.
 It is free software, and you are welcome to redistribute it
 under certain conditions (GNU General Public License,
 see ~abinit/COPYING or http://www.gnu.org/copyleft/gpl.txt).

 ABINIT is a project of the Universite Catholique de Louvain,
 Corning Inc. and other collaborators, see ~abinit/doc/developers/contributors.txt .
 Please read ~abinit/doc/users/acknowledgments.html for suggested
 acknowledgments of the ABINIT effort.
 For more information, see http://www.abinit.org .

.Starting date : Thu  6 Nov 2008.
  
- input  file    -> /home/gonze/ABINIT/ABINITv5.6.3/test_gcc43/5.6.3-private/tests/v5/Input/t35.in
- output file    -> t35.out
- root for input  files -> t35i
- root for output files -> t35o


 Symmetries : space group P4_2/m n m (#136); Bravais tP (primitive tetrag.)
================================================================================
 Values of the parameters that define the memory need of the present run
   intxc =         0  ionmov =         0    iscf =        14 xclevel =         1
  lmnmax =         8   lnmax =         4   mband =        17  mffmem =         1
P  mgfft =        24   mkmem =         2 mpssoang=         2     mpw =       474
  mqgrid =      3001   natom =         6    nfft =      9216    nkpt =         2
  nloalg =         4  nspden =         1 nspinor =         1  nsppol =         1
    nsym =        16  n1xccc =         1  ntypat =         2  occopt =         1
 PAW method is used; the additional fine FFT grid is defined by:
   mgfftf=        54    nfftf =    104976
================================================================================
P This job should need less than                      24.403 Mbytes of memory.
  Rough estimation (10% accuracy) of disk space for files :
  WF disk file :      0.248 Mbytes ; DEN or POT disk file :      0.803 Mbytes.
================================================================================

 -outvars: echo values of preprocessed input variables --------
     acell    7.8599379045E+00  7.8599379045E+00  5.0291281574E+00 Bohr
       amu    2.80855000E+01  1.59994000E+01
    diemac    3.00000000E+00
      ecut    1.00000000E+01 Hartree
      iscf        14
       ixc         2
       kpt    2.50000000E-01  2.50000000E-01  1.25000000E-01
              2.50000000E-01  2.50000000E-01  3.75000000E-01
   kptrlen    1.57198758E+01
    kptopt         1
  kptrlatt    2  0  0   0  2  0   0  0  4
P    mkmem         2
     natom         6
     nband        17
     ngfft        24      24      16
   ngfftdg        54      54      36
      nkpt         2
     nstep        50
      nsym        16
    ntypat         2
       occ    2.000000  2.000000  2.000000  2.000000  2.000000  2.000000
              2.000000  2.000000  2.000000  2.000000  2.000000  2.000000
              2.000000  2.000000  2.000000  2.000000  0.000000
 pawecutdg    5.00000000E+01 Hartree
  ptcharge    4.00000000E+00 -2.00000000E+00
    prtden         0
    prtefg         3
    prteig         0
     prtwf         0
   quadmom    0.00000000E+00 -2.61000000E-02
    shiftk    5.00000000E-01  5.00000000E-01  5.00000000E-01
   spgroup       136
    symrel    1  0  0   0  1  0   0  0  1      -1  0  0   0 -1  0   0  0 -1
             -1  0  0   0  1  0   0  0 -1       1  0  0   0 -1  0   0  0  1
             -1  0  0   0 -1  0   0  0  1       1  0  0   0  1  0   0  0 -1
              1  0  0   0 -1  0   0  0 -1      -1  0  0   0  1  0   0  0  1
              0  1  0   1  0  0   0  0  1       0 -1  0  -1  0  0   0  0 -1
              0 -1  0   1  0  0   0  0 -1       0  1  0  -1  0  0   0  0  1
              0 -1  0  -1  0  0   0  0  1       0  1  0   1  0  0   0  0 -1
              0  1  0  -1  0  0   0  0 -1       0 -1  0   1  0  0   0  0  1
     tnons    0.0000000  0.0000000  0.0000000     0.0000000  0.0000000  0.0000000
              0.5000000  0.5000000  0.5000000     0.5000000  0.5000000  0.5000000
              0.0000000  0.0000000  0.0000000     0.0000000  0.0000000  0.0000000
              0.5000000  0.5000000  0.5000000     0.5000000  0.5000000  0.5000000
              0.0000000  0.0000000  0.0000000     0.0000000  0.0000000  0.0000000
              0.5000000  0.5000000  0.5000000     0.5000000  0.5000000  0.5000000
              0.0000000  0.0000000  0.0000000     0.0000000  0.0000000  0.0000000
              0.5000000  0.5000000  0.5000000     0.5000000  0.5000000  0.5000000
    toldfe    3.67493254E-06 Hartree
     typat    1  1  2  2  2  2
    useylm         1
       wtk      0.50000    0.50000
    xangst    0.0000000000E+00  0.0000000000E+00  0.0000000000E+00
              2.0796500000E+00  2.0796500000E+00  1.3306500000E+00
              1.2739935900E+00  1.2739935900E+00  0.0000000000E+00
             -1.2739935900E+00 -1.2739935900E+00  0.0000000000E+00
              8.0565641000E-01  3.3536435900E+00  1.3306500000E+00
              3.3536435900E+00  8.0565641000E-01  1.3306500000E+00
     xcart    0.0000000000E+00  0.0000000000E+00  0.0000000000E+00
              3.9299689523E+00  3.9299689523E+00  2.5145640787E+00
              2.4074989802E+00  2.4074989802E+00  0.0000000000E+00
             -2.4074989802E+00 -2.4074989802E+00  0.0000000000E+00
              1.5224699721E+00  6.3374679324E+00  2.5145640787E+00
              6.3374679324E+00  1.5224699721E+00  2.5145640787E+00
      xred    0.0000000000E+00  0.0000000000E+00  0.0000000000E+00
              5.0000000000E-01  5.0000000000E-01  5.0000000000E-01
              3.0630000000E-01  3.0630000000E-01  0.0000000000E+00
             -3.0630000000E-01 -3.0630000000E-01  0.0000000000E+00
              1.9370000000E-01  8.0630000000E-01  5.0000000000E-01
              8.0630000000E-01  1.9370000000E-01  5.0000000000E-01
     znucl     14.00000    8.00000

================================================================================

 chkinp: Checking input parameters for consistency.

================================================================================
== DATASET  1 ==================================================================

 Real(R)+Recip(G) space primitive vectors, cartesian coordinates (Bohr,Bohr^-1):
 R(1)=  7.8599379  0.0000000  0.0000000  G(1)=  0.1272275  0.0000000  0.0000000
 R(2)=  0.0000000  7.8599379  0.0000000  G(2)=  0.0000000  0.1272275  0.0000000
 R(3)=  0.0000000  0.0000000  5.0291282  G(3)=  0.0000000  0.0000000  0.1988416
 Unit cell volume ucvol=  3.1069262E+02 bohr^3
 Angles (23,13,12)=  9.00000000E+01  9.00000000E+01  9.00000000E+01 degrees

 Coarse grid specifications (used for wave-functions):

 getcut: wavevector=  0.0000  0.0000  0.0000  ngfft=  24  24  16
         ecut(hartree)=     10.000   => boxcut(ratio)=   2.14500

 Fine grid specifications (used for densities):

 getcut: wavevector=  0.0000  0.0000  0.0000  ngfft=  54  54  36
         ecut(hartree)=     50.000   => boxcut(ratio)=   2.15836

--- Pseudopotential description ------------------------------------------------
- pspini: atom type   1  psp file is /home/gonze/ABINIT/ABINITv5.6.3/test_gcc43/5.6.3-private/tests/Psps_for_tests/si_ps.736.lda
- pspatm: opening atomic psp file    /home/gonze/ABINIT/ABINITv5.6.3/test_gcc43/5.6.3-private/tests/Psps_for_tests/si_ps.736.lda
 silicon - PAW data extracted from US-psp (D.Vanderbilt) - generated by USpp2Abinit v2.2.1
  14.00000   4.00000  20071017                znucl, zion, pspdat
    7    2    1    0       620   0.00000      pspcod,pspxc,lmax,lloc,mmax,r2well
 Pseudopotential format is: paw3
 basis_size (lnmax)=  4 (lmn_size=  8), orbitals=   0   0   1   1
 Spheres core radius: rc_sph= 1.81165366
 4 radial meshes are used:
  - mesh 1: r(i)=AA*[exp(BB*(i-1))-1], size= 620 , AA= 0.65134E-04 BB= 0.16667E-01
  - mesh 2: r(i)=AA*[exp(BB*(i-1))-1], size= 616 , AA= 0.65134E-04 BB= 0.16667E-01
  - mesh 3: r(i)=AA*[exp(BB*(i-1))-1], size= 663 , AA= 0.65134E-04 BB= 0.16667E-01
  - mesh 4: r(i)=AA*[exp(BB*(i-1))-1], size= 717 , AA= 0.65134E-04 BB= 0.16667E-01
 Shapefunction is BESSEL type: shapef(r,l)=aa(1,l)*jl(q(1,l)*r)+aa(2,l)*jl(q(2,l)*r)
 Radius for shape functions = sphere core radius
 Radial grid used for partial waves is grid 1
 Radial grid used for projectors is grid 2
 Radial grid used for (t)core density is grid 3
 Radial grid used for Vloc is grid 4
 pspatm: atomic psp has been read  and splines computed

- pspini: atom type   2  psp file is /home/gonze/ABINIT/ABINITv5.6.3/test_gcc43/5.6.3-private/tests/Psps_for_tests/o_ps.736.lda
- pspatm: opening atomic psp file    /home/gonze/ABINIT/ABINITv5.6.3/test_gcc43/5.6.3-private/tests/Psps_for_tests/o_ps.736.lda
 oxygen - PAW data extracted from US-psp (D.Vanderbilt) - generated by USpp2Abinit v2.2.1
   8.00000   6.00000  20071017                znucl, zion, pspdat
    7    2    1    0       499   0.00000      pspcod,pspxc,lmax,lloc,mmax,r2well
 Pseudopotential format is: paw3
 basis_size (lnmax)=  4 (lmn_size=  8), orbitals=   0   0   1   1
 Spheres core radius: rc_sph= 1.31818480
 4 radial meshes are used:
  - mesh 1: r(i)=AA*[exp(BB*(i-1))-1], size= 499 , AA= 0.30984E-03 BB= 0.16949E-01
  - mesh 2: r(i)=AA*[exp(BB*(i-1))-1], size= 495 , AA= 0.30984E-03 BB= 0.16949E-01
  - mesh 3: r(i)=AA*[exp(BB*(i-1))-1], size= 506 , AA= 0.30984E-03 BB= 0.16949E-01
  - mesh 4: r(i)=AA*[exp(BB*(i-1))-1], size= 613 , AA= 0.30984E-03 BB= 0.16949E-01
 Shapefunction is BESSEL type: shapef(r,l)=aa(1,l)*jl(q(1,l)*r)+aa(2,l)*jl(q(2,l)*r)
 Radius for shape functions = sphere core radius
 Radial grid used for partial waves is grid 1
 Radial grid used for projectors is grid 2
 Radial grid used for (t)core density is grid 3
 Radial grid used for Vloc is grid 4
 pspatm: atomic psp has been read  and splines computed

   5.28538443E+02                                ecore*ucvol(ha*bohr**3)
--------------------------------------------------------------------------------

P newkpt: treating     17 bands with npw=     474 for ikpt=   1
P newkpt: treating     17 bands with npw=     466 for ikpt=   2

 setup2: Arith. and geom. avg. npw (full set) are     470.000     469.983

================================================================================

     iter   Etot(hartree)      deltaE(h)  residm     nres2    diffor    maxfor
 ETOT  1  -72.739397693172    -7.274E+01 1.555E-01 8.304E+01 4.325E-03 4.325E-03
 ETOT  2  -72.834865188193    -9.547E-02 5.579E-03 8.326E+00 5.637E-03 9.962E-03
 ETOT  3  -72.824512952389     1.035E-02 4.579E-03 1.345E+00 1.283E-02 2.869E-03
 ETOT  4  -72.823212048754     1.301E-03 5.496E-04 2.237E-02 5.169E-04 2.352E-03
 ETOT  5  -72.823184529440     2.752E-05 3.091E-04 2.801E-04 4.776E-04 1.874E-03
 ETOT  6  -72.823184606435    -7.699E-08 4.917E-05 1.631E-05 1.793E-04 1.695E-03
 ETOT  7  -72.823184603623     2.811E-09 3.128E-05 6.756E-07 1.413E-05 1.709E-03

 At SCF step    7, etot is converged :
  for the second time, diff in etot=  2.811E-09 < toldfe=  3.675E-06

 Cartesian components of stress tensor (hartree/bohr^3)
  sigma(1 1)=  1.85756816E-03  sigma(3 2)=  0.00000000E+00
  sigma(2 2)=  1.85756816E-03  sigma(3 1)=  0.00000000E+00
  sigma(3 3)=  1.80933833E-03  sigma(2 1)=  0.00000000E+00


 PAW TEST:
 ==== Compensation charge inside spheres ============
 The following values must be close to each other ...
 Compensation charge over spherical meshes =      3.835450038305008
 Compensation charge over fine fft grid    =      3.835358918863619

 ==== Results concerning PAW augmentation regions ====

 Total pseudopotential strength Dij (hartree):
 Atom #  1
   0.43393   0.99643   0.00000   0.00000   0.00000   0.00000   0.00000   0.00000
   0.99643   2.27377   0.00000   0.00000   0.00000   0.00000   0.00000   0.00000
   0.00000   0.00000   0.13563   0.00000  -0.00000   0.28973   0.00000  -0.00000
   0.00000   0.00000   0.00000   0.13573   0.00000   0.00000   0.28993   0.00000
   0.00000   0.00000  -0.00000   0.00000   0.13563  -0.00000   0.00000   0.28973
   0.00000   0.00000   0.28973   0.00000  -0.00000   0.61630   0.00000  -0.00000
   0.00000   0.00000   0.00000   0.28993   0.00000   0.00000   0.61675   0.00000
   0.00000   0.00000  -0.00000   0.00000   0.28973  -0.00000   0.00000   0.61630
 Atom #  6
   0.99513   2.07574   0.00081   0.00000  -0.00081   0.00098   0.00000  -0.00098
   2.07574   4.33451   0.00162   0.00000  -0.00162   0.00197   0.00000  -0.00197
   0.00081   0.00162  -0.22992   0.00000   0.00276  -0.19671   0.00000   0.00303
   0.00000   0.00000   0.00000  -0.23148   0.00000   0.00000  -0.19842   0.00000
  -0.00081  -0.00162   0.00276   0.00000  -0.22992   0.00303   0.00000  -0.19671
   0.00098   0.00197  -0.19671   0.00000   0.00303  -0.14119   0.00000   0.00331
   0.00000   0.00000   0.00000  -0.19842   0.00000   0.00000  -0.14305   0.00000
  -0.00098  -0.00197   0.00303   0.00000  -0.19671   0.00331   0.00000  -0.14119


 Augmentation waves occupancies Rhoij:
 Atom #  1
   2.22646  -0.32505   0.00000   0.00000   0.00000   0.00000   0.00000   0.00000
  -0.32505   0.05377   0.00000   0.00000   0.00000   0.00000   0.00000   0.00000
   0.00000   0.00000   2.92254   0.00000   0.12668  -0.65325   0.00000  -0.05973
   0.00000   0.00000   0.00000   3.10806   0.00000   0.00000  -0.68961   0.00000
   0.00000   0.00000   0.12668   0.00000   2.92254  -0.05973   0.00000  -0.65325
   0.00000   0.00000  -0.65325   0.00000  -0.05973   0.15366   0.00000   0.01810
   0.00000   0.00000   0.00000  -0.68961   0.00000   0.00000   0.16547   0.00000
   0.00000   0.00000  -0.05973   0.00000  -0.65325   0.01810   0.00000   0.15366
 Atom #  6
   2.68318  -0.27192  -0.04011   0.00000   0.04011   0.01385   0.00000  -0.01385
  -0.27192   0.04954   0.01198   0.00000  -0.01198   0.00695   0.00000  -0.00695
  -0.04011   0.01198   0.26244   0.00000  -0.09030   0.31768   0.00000   0.00146
   0.00000   0.00000   0.00000   0.30787   0.00000   0.00000   0.32554   0.00000
   0.04011  -0.01198  -0.09030   0.00000   0.26244   0.00146   0.00000   0.31768
   0.01385   0.00695   0.31768   0.00000   0.00146   0.72546   0.00000   0.19294
   0.00000   0.00000   0.00000   0.32554   0.00000   0.00000   0.56245   0.00000
  -0.01385  -0.00695   0.00146   0.00000   0.31768   0.19294   0.00000   0.72546



 Electric Field Gradient Calculation

 Atom   1, typat   1: Cq =   0.000 MHz     eta =   0.000

      efg eigval :  -0.149
-         eigvec :   0.000 -0.000 -1.000
      efg eigval :  -0.052
-         eigvec :   0.707 -0.707  0.000
      efg eigval :   0.202
-         eigvec :   0.707  0.707 -0.000

      total efg :   0.075  0.127 -0.000
      total efg :   0.127  0.075 -0.000
      total efg :  -0.000 -0.000 -0.149


      efg_el :   0.096  0.001 -0.000
      efg_el :   0.001  0.096 -0.000
      efg_el :  -0.000 -0.000 -0.193

      efg_ion :  -0.101  0.011 -0.000
      efg_ion :   0.011 -0.101 -0.000
      efg_ion :  -0.000 -0.000  0.202

      efg_paw :   0.079  0.115  0.000
      efg_paw :   0.115  0.079  0.000
      efg_paw :   0.000  0.000 -0.158

 Atom   1, typat   1: Point charge Cq =   0.000 MHz     eta =   0.000

      point charge efg eigval :  -0.003
-         eigvec :   0.000  0.000  1.000
      point charge efg eigval :  -0.002
-         eigvec :   0.707  0.707 -0.000
      point charge efg eigval :   0.005
-         eigvec :  -0.707  0.707  0.000

      point charge efg :   0.001 -0.004 -0.000
      point charge efg :  -0.004  0.001 -0.000
      point charge efg :  -0.000 -0.000 -0.003

 Atom   2, typat   1: Cq =   0.000 MHz     eta =   0.000

      efg eigval :  -0.149
-         eigvec :  -0.000  0.000 -1.000
      efg eigval :  -0.052
-         eigvec :   0.707  0.707 -0.000
      efg eigval :   0.202
-         eigvec :  -0.707  0.707  0.000

      total efg :   0.075 -0.127 -0.000
      total efg :  -0.127  0.075  0.000
      total efg :  -0.000  0.000 -0.149


      efg_el :   0.096 -0.001 -0.000
      efg_el :  -0.001  0.096  0.000
      efg_el :  -0.000  0.000 -0.193

      efg_ion :  -0.101 -0.011  0.000
      efg_ion :  -0.011 -0.101 -0.000
      efg_ion :   0.000  0.000  0.202

      efg_paw :   0.079 -0.115  0.000
      efg_paw :  -0.115  0.079  0.000
      efg_paw :   0.000  0.000 -0.158

 Atom   2, typat   1: Point charge Cq =   0.000 MHz     eta =   0.000

      point charge efg eigval :  -0.003
-         eigvec :  -0.000  0.000 -1.000
      point charge efg eigval :  -0.002
-         eigvec :   0.707 -0.707 -0.000
      point charge efg eigval :   0.005
-         eigvec :   0.707  0.707 -0.000

      point charge efg :   0.001  0.004 -0.000
      point charge efg :   0.004  0.001 -0.000
      point charge efg :  -0.000 -0.000 -0.003

 Atom   3, typat   2: Cq =   6.360 MHz     eta =   0.108

      efg eigval :  -1.037
-         eigvec :  -0.707  0.707  0.000
      efg eigval :   0.462
-         eigvec :  -0.000 -0.000 -1.000
      efg eigval :   0.575
-         eigvec :   0.707  0.707 -0.000

      total efg :  -0.231  0.806  0.000
      total efg :   0.806 -0.231 -0.000
      total efg :   0.000 -0.000  0.462


      efg_el :  -0.020 -0.143 -0.000
      efg_el :  -0.143 -0.020 -0.000
      efg_el :  -0.000 -0.000  0.040

      efg_ion :  -0.017  0.302  0.000
      efg_ion :   0.302 -0.017 -0.000
      efg_ion :   0.000  0.000  0.034

      efg_paw :  -0.195  0.647  0.000
      efg_paw :   0.647 -0.195  0.000
      efg_paw :   0.000  0.000  0.389

 Atom   3, typat   2: Point charge Cq =   1.580 MHz     eta =   0.558

      point charge efg eigval :  -0.258
-         eigvec :  -0.707  0.707  0.000
      point charge efg eigval :   0.057
-         eigvec :   0.000  0.000  1.000
      point charge efg eigval :   0.201
-         eigvec :   0.707  0.707 -0.000

      point charge efg :  -0.028  0.229 -0.000
      point charge efg :   0.229 -0.028 -0.000
      point charge efg :  -0.000 -0.000  0.057

 Atom   4, typat   2: Cq =   6.360 MHz     eta =   0.108

      efg eigval :  -1.037
-         eigvec :  -0.707  0.707  0.000
      efg eigval :   0.462
-         eigvec :   0.000  0.000  1.000
      efg eigval :   0.575
-         eigvec :   0.707  0.707 -0.000

      total efg :  -0.231  0.806 -0.000
      total efg :   0.806 -0.231 -0.000
      total efg :  -0.000 -0.000  0.462


      efg_el :  -0.020 -0.143 -0.000
      efg_el :  -0.143 -0.020 -0.000
      efg_el :  -0.000 -0.000  0.040

      efg_ion :  -0.017  0.302 -0.000
      efg_ion :   0.302 -0.017 -0.000
      efg_ion :  -0.000 -0.000  0.034

      efg_paw :  -0.195  0.647  0.000
      efg_paw :   0.647 -0.195  0.000
      efg_paw :   0.000  0.000  0.389

 Atom   4, typat   2: Point charge Cq =   1.580 MHz     eta =   0.558

      point charge efg eigval :  -0.258
-         eigvec :  -0.707  0.707 -0.000
      point charge efg eigval :   0.057
-         eigvec :  -0.000 -0.000  1.000
      point charge efg eigval :   0.201
-         eigvec :   0.707  0.707  0.000

      point charge efg :  -0.028  0.229  0.000
      point charge efg :   0.229 -0.028  0.000
      point charge efg :   0.000  0.000  0.057

 Atom   5, typat   2: Cq =   6.360 MHz     eta =   0.108

      efg eigval :  -1.037
-         eigvec :  -0.707 -0.707 -0.000
      efg eigval :   0.462
-         eigvec :   0.000 -0.000  1.000
      efg eigval :   0.575
-         eigvec :  -0.707  0.707  0.000

      total efg :  -0.231 -0.806 -0.000
      total efg :  -0.806 -0.231  0.000
      total efg :  -0.000  0.000  0.462


      efg_el :  -0.020  0.143  0.000
      efg_el :   0.143 -0.020  0.000
      efg_el :   0.000  0.000  0.040

      efg_ion :  -0.017 -0.302 -0.000
      efg_ion :  -0.302 -0.017  0.000
      efg_ion :  -0.000  0.000  0.034

      efg_paw :  -0.195 -0.647  0.000
      efg_paw :  -0.647 -0.195  0.000
      efg_paw :   0.000  0.000  0.389

 Atom   5, typat   2: Point charge Cq =   1.580 MHz     eta =   0.558

      point charge efg eigval :  -0.258
-         eigvec :   0.707  0.707 -0.000
      point charge efg eigval :   0.057
-         eigvec :  -0.000  0.000 -1.000
      point charge efg eigval :   0.201
-         eigvec :  -0.707  0.707  0.000

      point charge efg :  -0.028 -0.229 -0.000
      point charge efg :  -0.229 -0.028  0.000
      point charge efg :   0.000  0.000  0.057

 Atom   6, typat   2: Cq =   6.360 MHz     eta =   0.108

      efg eigval :  -1.037
-         eigvec :   0.707  0.707  0.000
      efg eigval :   0.462
-         eigvec :   0.000 -0.000 -1.000
      efg eigval :   0.575
-         eigvec :   0.707 -0.707  0.000

      total efg :  -0.231 -0.806 -0.000
      total efg :  -0.806 -0.231 -0.000
      total efg :  -0.000 -0.000  0.462


      efg_el :  -0.020  0.143 -0.000
      efg_el :   0.143 -0.020 -0.000
      efg_el :  -0.000 -0.000  0.040

      efg_ion :  -0.017 -0.302 -0.000
      efg_ion :  -0.302 -0.017 -0.000
      efg_ion :   0.000 -0.000  0.034

      efg_paw :  -0.195 -0.647  0.000
      efg_paw :  -0.647 -0.195  0.000
      efg_paw :   0.000  0.000  0.389

 Atom   6, typat   2: Point charge Cq =   1.580 MHz     eta =   0.558

      point charge efg eigval :  -0.258
-         eigvec :  -0.707 -0.707  0.000
      point charge efg eigval :   0.057
-         eigvec :   0.000  0.000  1.000
      point charge efg eigval :   0.201
-         eigvec :  -0.707  0.707 -0.000

      point charge efg :  -0.028 -0.229  0.000
      point charge efg :  -0.229 -0.028  0.000
      point charge efg :   0.000  0.000  0.057





================================================================================

 ----iterations are completed or convergence reached----

 Mean square residual over all n,k,spin=   1.3428E-06; max=  3.1277E-05
   0.2500  0.2500  0.1250    1  1.43769E-05 kpt; spin; max resid(k); each band:
 3.14E-10 8.94E-11 1.37E-10 2.22E-11 3.45E-11 2.51E-11 1.92E-11 6.47E-12
 3.87E-11 1.02E-11 9.42E-12 1.24E-11 1.12E-11 1.79E-11 4.83E-12 9.01E-12
 1.44E-05
   0.2500  0.2500  0.3750    1  3.12765E-05 kpt; spin; max resid(k); each band:
 1.55E-10 7.64E-11 9.55E-11 1.82E-11 5.62E-11 2.52E-11 2.05E-11 1.28E-11
 2.65E-11 1.91E-11 1.47E-11 1.94E-11 4.70E-12 5.82E-11 5.11E-12 2.26E-12
 3.13E-05
 reduced coordinates (array xred) for    6 atoms
       0.000000000000      0.000000000000      0.000000000000
       0.500000000000      0.500000000000      0.500000000000
       0.306300000000      0.306300000000      0.000000000000
      -0.306300000000     -0.306300000000      0.000000000000
       0.193700000000      0.806300000000      0.500000000000
       0.806300000000      0.193700000000      0.500000000000
 rms dE/dt=  8.9558E-03; max dE/dt=  1.3434E-02; dE/dt below (all hartree)
    1       0.000000000000      0.000000000000      0.000000000000
    2       0.000000000000      0.000000000000      0.000000000000
    3       0.013433712594      0.013433712594      0.000000000000
    4      -0.013433712594     -0.013433712594     -0.000000000000
    5      -0.013433712594      0.013433712594     -0.000000000000
    6       0.013433712594     -0.013433712594      0.000000000000

 cartesian coordinates (angstrom) at end:
    1      0.00000000000000     0.00000000000000     0.00000000000000
    2      2.07965000000000     2.07965000000000     1.33065000000000
    3      1.27399359000000     1.27399359000000     0.00000000000000
    4     -1.27399359000000    -1.27399359000000     0.00000000000000
    5      0.80565641000000     3.35364359000000     1.33065000000000
    6      3.35364359000000     0.80565641000000     1.33065000000000

 cartesian forces (hartree/bohr) at end:
    1     -0.00000000000000    -0.00000000000000    -0.00000000000000
    2     -0.00000000000000    -0.00000000000000    -0.00000000000000
    3     -0.00170913724219    -0.00170913724219    -0.00000000000000
    4      0.00170913724219     0.00170913724219     0.00000000000000
    5      0.00170913724219    -0.00170913724219     0.00000000000000
    6     -0.00170913724219     0.00170913724219    -0.00000000000000
 frms,max,avg= 1.1394248E-03 1.7091372E-03   0.000E+00  0.000E+00  0.000E+00 h/b

 cartesian forces (eV/Angstrom) at end:
    1     -0.00000000000000    -0.00000000000000    -0.00000000000000
    2     -0.00000000000000    -0.00000000000000    -0.00000000000000
    3     -0.08788736327229    -0.08788736327229    -0.00000000000000
    4      0.08788736327229     0.08788736327229     0.00000000000000
    5      0.08788736327229    -0.08788736327229     0.00000000000000
    6     -0.08788736327229     0.08788736327229    -0.00000000000000
 frms,max,avg= 5.8591576E-02 8.7887363E-02   0.000E+00  0.000E+00  0.000E+00 e/A
 length scales=  7.859937904511  7.859937904511  5.029128157449 bohr
              =  4.159300000000  4.159300000000  2.661300000000 angstroms
 Fermi (or HOMO) energy (hartree) =   0.30220   Average Vxc (hartree)=  -0.47584
 Eigenvalues (hartree) for nkpt=   2  k points:
 kpt#   1, nband= 17, wtk=  0.50000, kpt=  0.2500  0.2500  0.1250 (reduced coord)
  -0.46916  -0.40545  -0.36425  -0.33656  -0.03429   0.03552   0.09454   0.12000
   0.14752   0.14926   0.18811   0.19130   0.20790   0.25185   0.27495   0.30220
   0.60018
 kpt#   2, nband= 17, wtk=  0.50000, kpt=  0.2500  0.2500  0.3750 (reduced coord)
  -0.41861  -0.38089  -0.34046  -0.33774  -0.04633  -0.00526   0.04289   0.05915
   0.07602   0.13542   0.14594   0.20907   0.21196   0.24504   0.25432   0.27703
   0.62599
 Total charge density [el/Bohr^3]
,     Maximum=    1.3277E+00  at reduced coord.    0.2037    0.8148    0.5000
,Next maximum=    1.3277E+00  at reduced coord.    0.1852    0.7963    0.5000
,     Minimum=   -4.6134E-03  at reduced coord.    0.0000    0.0000    0.0000
,Next minimum=   -4.6134E-03  at reduced coord.    0.5000    0.5000    0.5000

--------------------------------------------------------------------------------
 Components of total free energy (in Hartree) :

    Kinetic energy  =  3.03557435979999E+01
    Hartree energy  =  1.58883784909687E+01
    XC energy       = -2.13488866245409E+01
    Ewald energy    = -6.41628304168268E+01
    PspCore energy  =  1.70116190198072E+00
    Loc. psp. energy= -6.13242545076235E+01
    Spherical terms =  2.60668796152155E+01
    >>>>>>>>> Etotal= -7.28238079428262E+01

 "Double-counting" decomposition of free energy:
    Band energy     =  4.80985433684790E-01
    Ewald energy    = -6.41628304168268E+01
    PspCore energy  =  1.70116190198072E+00
    Dble-C XC-energy= -1.49773486667770E+01
    Spherical terms =  4.13484714431482E+00
    >>>> Etotal (DC)= -7.28231846036234E+01

  >Total energy in eV           = -1.98163659207916E+03
  >Total DC energy in eV        = -1.98161963015684E+03
--------------------------------------------------------------------------------

 Cartesian components of stress tensor (hartree/bohr^3)
  sigma(1 1)=  1.85756816E-03  sigma(3 2)=  0.00000000E+00
  sigma(2 2)=  1.85756816E-03  sigma(3 1)=  0.00000000E+00
  sigma(3 3)=  1.80933833E-03  sigma(2 1)=  0.00000000E+00

-Cartesian components of stress tensor (GPa)         [Pressure= -5.4179E+01 GPa]
- sigma(1 1)=  5.46515330E+01  sigma(3 2)=  0.00000000E+00
- sigma(2 2)=  5.46515330E+01  sigma(3 1)=  0.00000000E+00
- sigma(3 3)=  5.32325627E+01  sigma(2 1)=  0.00000000E+00

== END DATASET(S) ==============================================================
================================================================================
  
 -outvars: echo values of variables after computation  --------
     acell    7.8599379045E+00  7.8599379045E+00  5.0291281574E+00 Bohr
       amu    2.80855000E+01  1.59994000E+01
    diemac    3.00000000E+00
      ecut    1.00000000E+01 Hartree
    etotal   -7.2823184604E+01
     fcart   -0.0000000000E+00 -0.0000000000E+00 -0.0000000000E+00
             -0.0000000000E+00 -0.0000000000E+00 -0.0000000000E+00
             -1.7091372422E-03 -1.7091372422E-03 -3.2124596616E-28
              1.7091372422E-03  1.7091372422E-03  3.2124596616E-28
              1.7091372422E-03 -1.7091372422E-03  3.2124596616E-28
             -1.7091372422E-03  1.7091372422E-03 -3.2124596616E-28
      iscf        14
       ixc         2
       kpt    2.50000000E-01  2.50000000E-01  1.25000000E-01
              2.50000000E-01  2.50000000E-01  3.75000000E-01
   kptrlen    1.57198758E+01
    kptopt         1
  kptrlatt    2  0  0   0  2  0   0  0  4
P    mkmem         2
     natom         6
     nband        17
     ngfft        24      24      16
   ngfftdg        54      54      36
      nkpt         2
     nstep        50
      nsym        16
    ntypat         2
       occ    2.000000  2.000000  2.000000  2.000000  2.000000  2.000000
              2.000000  2.000000  2.000000  2.000000  2.000000  2.000000
              2.000000  2.000000  2.000000  2.000000  0.000000
 pawecutdg    5.00000000E+01 Hartree
  ptcharge    4.00000000E+00 -2.00000000E+00
    prtden         0
    prtefg         3
    prteig         0
     prtwf         0
   quadmom    0.00000000E+00 -2.61000000E-02
    shiftk    5.00000000E-01  5.00000000E-01  5.00000000E-01
   spgroup       136
    strten    1.8575681628E-03  1.8575681628E-03  1.8093383347E-03
              0.0000000000E+00  0.0000000000E+00  0.0000000000E+00
    symrel    1  0  0   0  1  0   0  0  1      -1  0  0   0 -1  0   0  0 -1
             -1  0  0   0  1  0   0  0 -1       1  0  0   0 -1  0   0  0  1
             -1  0  0   0 -1  0   0  0  1       1  0  0   0  1  0   0  0 -1
              1  0  0   0 -1  0   0  0 -1      -1  0  0   0  1  0   0  0  1
              0  1  0   1  0  0   0  0  1       0 -1  0  -1  0  0   0  0 -1
              0 -1  0   1  0  0   0  0 -1       0  1  0  -1  0  0   0  0  1
              0 -1  0  -1  0  0   0  0  1       0  1  0   1  0  0   0  0 -1
              0  1  0  -1  0  0   0  0 -1       0 -1  0   1  0  0   0  0  1
     tnons    0.0000000  0.0000000  0.0000000     0.0000000  0.0000000  0.0000000
              0.5000000  0.5000000  0.5000000     0.5000000  0.5000000  0.5000000
              0.0000000  0.0000000  0.0000000     0.0000000  0.0000000  0.0000000
              0.5000000  0.5000000  0.5000000     0.5000000  0.5000000  0.5000000
              0.0000000  0.0000000  0.0000000     0.0000000  0.0000000  0.0000000
              0.5000000  0.5000000  0.5000000     0.5000000  0.5000000  0.5000000
              0.0000000  0.0000000  0.0000000     0.0000000  0.0000000  0.0000000
              0.5000000  0.5000000  0.5000000     0.5000000  0.5000000  0.5000000
    toldfe    3.67493254E-06 Hartree
     typat    1  1  2  2  2  2
    useylm         1
       wtk      0.50000    0.50000
    xangst    0.0000000000E+00  0.0000000000E+00  1.4773182677E-16
              2.0796500000E+00  2.0796500000E+00  1.3306500000E+00
              1.2739935900E+00  1.2739935900E+00  1.4773182677E-16
             -1.2739935900E+00 -1.2739935900E+00  1.4773182677E-16
              8.0565641000E-01  3.3536435900E+00  1.3306500000E+00
              3.3536435900E+00  8.0565641000E-01  1.3306500000E+00
     xcart    0.0000000000E+00  0.0000000000E+00  2.7917269371E-16
              3.9299689523E+00  3.9299689523E+00  2.5145640787E+00
              2.4074989802E+00  2.4074989802E+00  2.7917269371E-16
             -2.4074989802E+00 -2.4074989802E+00  2.7917269371E-16
              1.5224699721E+00  6.3374679324E+00  2.5145640787E+00
              6.3374679324E+00  1.5224699721E+00  2.5145640787E+00
      xred    0.0000000000E+00  0.0000000000E+00  5.5511151231E-17
              5.0000000000E-01  5.0000000000E-01  5.0000000000E-01
              3.0630000000E-01  3.0630000000E-01  5.5511151231E-17
             -3.0630000000E-01 -3.0630000000E-01  5.5511151231E-17
              1.9370000000E-01  8.0630000000E-01  5.0000000000E-01
              8.0630000000E-01  1.9370000000E-01  5.0000000000E-01
     znucl     14.00000    8.00000

================================================================================

- Total cpu        time (s,m,h):          6.4        0.11      0.002
- Total wall clock time (s,m,h):          6.4        0.11      0.002

- For major independent code sections, cpu and wall times (sec),
- as well as % of the total time and number of calls 

- routine                 cpu     %       wall     %      number of calls 
-                                                          (-1=no count)
- pspini                 1.200  18.7      1.200  18.7              1
- fourwf(pot)            0.688  10.7      0.672  10.5           1443
- forces                 0.624   9.7      0.627   9.8              7
- nonlop(apply)          0.368   5.7      0.379   5.9           1443
- fourdp                 0.360   5.6      0.354   5.5             87
- timing timab           0.349   5.4      0.349   5.4             11
- xc:pot/=fourdp         0.144   2.2      0.145   2.3            100
- invars2                0.106   1.7      0.107   1.7              1
- vtorho:ntild+nha       0.100   1.6      0.100   1.6              7
- fourwf(den)            0.077   1.2      0.082   1.3            224
- nhatgrid               0.075   1.2      0.075   1.2              1
- projbd                 0.075   1.2      0.075   1.2           1137
- vtowfk(ssdiag)         0.069   1.1      0.070   1.1             -1
- vtorho:mknhat          0.063   1.0      0.063   1.0              7
- vtorho  (1)            0.056   0.9      0.059   0.9              7
- stress                 0.040   0.6      0.041   0.6              1
- nonlop(forces)         0.039   0.6      0.032   0.5            238
- 53   others            0.225   3.5      0.218   3.4

- subtotal               4.658  72.6      4.648  72.5

================================================================================

 Calculation completed.
.Delivered    1 WARNINGs and   0 COMMENTs to log file.
+Overall time at end (sec) : cpu=          6.4  wall=          6.4
