
.Version 5.6.3  of ABINIT 
.(sequential version, prepared for a x86_64_linux_gcc4.3 computer) 

.Copyright (C) 1998-2008 ABINIT group . 
 ABINIT comes with ABSOLUTELY NO WARRANTY.
 It is free software, and you are welcome to redistribute it
 under certain conditions (GNU General Public License,
 see ~abinit/COPYING or http://www.gnu.org/copyleft/gpl.txt).

 ABINIT is a project of the Universite Catholique de Louvain,
 Corning Inc. and other collaborators, see ~abinit/doc/developers/contributors.txt .
 Please read ~abinit/doc/users/acknowledgments.html for suggested
 acknowledgments of the ABINIT effort.
 For more information, see http://www.abinit.org .

.Starting date : Thu  6 Nov 2008.
  
- input  file    -> /home/gonze/ABINIT/ABINITv5.6.3/test_gcc43/5.6.3-private/tests/v5/Input/t53.in
- output file    -> t53.out
- root for input  files -> t53i
- root for output files -> t53o


 Symmetries : space group Pn -3 m (#224); Bravais cP (primitive cubic)
================================================================================
 Values of the parameters that define the memory need of the present run
   intxc =         0  ionmov =         0    iscf =        17 xclevel =         1
  lmnmax =        18   lnmax =         6   mband =        29  mffmem =         1
P  mgfft =        24   mkmem =         1 mpssoang=         3     mpw =       784
  mqgrid =      3001   natom =         6    nfft =     13824    nkpt =         1
  nloalg =         4  nspden =         2 nspinor =         1  nsppol =         2
    nsym =        48  n1xccc =         1  ntypat =         2  occopt =         1
 PAW method is used; the additional fine FFT grid is defined by:
   mgfftf=        40    nfftf =     64000
================================================================================
P This job should need less than                      49.929 Mbytes of memory.
  Rough estimation (10% accuracy) of disk space for files :
  WF disk file :      0.696 Mbytes ; DEN or POT disk file :      0.979 Mbytes.
================================================================================

 -outvars: echo values of preprocessed input variables --------
     acell    8.0645952447E+00  8.0645952447E+00  8.0645952447E+00 Bohr
       amu    6.35460000E+01  1.59994000E+01
      ecut    1.00000000E+01 Hartree
       kpt    2.50000000E-01  2.50000000E-01  2.50000000E-01
   kptrlen    1.61291905E+01
    kptopt         1
  kptrlatt    2  0  0   0  2  0   0  0  2
P    mkmem         1
     natom         6
     nband        29
     ngfft        24      24      24
   ngfftdg        40      40      40
      nkpt         1
    nspden         2
    nsppol         2
     nstep        50
      nsym        48
    ntypat         2
       occ    1.000000  1.000000  1.000000  1.000000  1.000000  1.000000
              1.000000  1.000000  1.000000  1.000000  1.000000  1.000000
              1.000000  1.000000  1.000000  1.000000  1.000000  1.000000
              1.000000  1.000000  1.000000  1.000000  1.000000  1.000000
              1.000000  1.000000  1.000000  1.000000  0.000000
              1.000000  1.000000  1.000000  1.000000  1.000000  1.000000
              1.000000  1.000000  1.000000  1.000000  1.000000  1.000000
              1.000000  1.000000  1.000000  1.000000  1.000000  1.000000
              1.000000  1.000000  1.000000  1.000000  1.000000  1.000000
              1.000000  1.000000  1.000000  1.000000  0.000000
 pawecutdg    3.00000000E+01 Hartree
  pawmixdg         1
 dmatpuopt         1
   usepawu         1
     jpawu    3.00000000E-02  0.00000000E+00
     lpawu         2      -1
     upawu    3.00000000E-01  0.00000000E+00
    prtden         0
    prtefg         2
    prteig         0
     prtwf         0
   quadmom    2.20000000E-01 -2.61000000E-02
    shiftk    5.00000000E-01  5.00000000E-01  5.00000000E-01
   spgroup       224
    symrel    1  0  0   0  1  0   0  0  1      -1  0  0   0 -1  0   0  0 -1
             -1  0  0   0  1  0   0  0 -1       1  0  0   0 -1  0   0  0  1
             -1  0  0   0 -1  0   0  0  1       1  0  0   0  1  0   0  0 -1
              1  0  0   0 -1  0   0  0 -1      -1  0  0   0  1  0   0  0  1
              0  1  0   1  0  0   0  0  1       0 -1  0  -1  0  0   0  0 -1
              0 -1  0   1  0  0   0  0 -1       0  1  0  -1  0  0   0  0  1
              0 -1  0  -1  0  0   0  0  1       0  1  0   1  0  0   0  0 -1
              0  1  0  -1  0  0   0  0 -1       0 -1  0   1  0  0   0  0  1
              0  0  1   1  0  0   0  1  0       0  0 -1  -1  0  0   0 -1  0
              0  0 -1   1  0  0   0 -1  0       0  0  1  -1  0  0   0  1  0
              0  0 -1  -1  0  0   0  1  0       0  0  1   1  0  0   0 -1  0
              0  0  1  -1  0  0   0 -1  0       0  0 -1   1  0  0   0  1  0
              1  0  0   0  0  1   0  1  0      -1  0  0   0  0 -1   0 -1  0
             -1  0  0   0  0  1   0 -1  0       1  0  0   0  0 -1   0  1  0
             -1  0  0   0  0 -1   0  1  0       1  0  0   0  0  1   0 -1  0
              1  0  0   0  0 -1   0 -1  0      -1  0  0   0  0  1   0  1  0
              0  1  0   0  0  1   1  0  0       0 -1  0   0  0 -1  -1  0  0
              0 -1  0   0  0  1  -1  0  0       0  1  0   0  0 -1   1  0  0
              0 -1  0   0  0 -1   1  0  0       0  1  0   0  0  1  -1  0  0
              0  1  0   0  0 -1  -1  0  0       0 -1  0   0  0  1   1  0  0
              0  0  1   0  1  0   1  0  0       0  0 -1   0 -1  0  -1  0  0
              0  0 -1   0  1  0  -1  0  0       0  0  1   0 -1  0   1  0  0
              0  0 -1   0 -1  0   1  0  0       0  0  1   0  1  0  -1  0  0
              0  0  1   0 -1  0  -1  0  0       0  0 -1   0  1  0   1  0  0
     tnons    0.0000000  0.0000000  0.0000000     0.5000000  0.5000000  0.5000000
              0.0000000  0.0000000  0.0000000     0.5000000  0.5000000  0.5000000
              0.0000000  0.0000000  0.0000000     0.5000000  0.5000000  0.5000000
              0.0000000  0.0000000  0.0000000     0.5000000  0.5000000  0.5000000
              0.0000000  0.0000000  0.0000000     0.5000000  0.5000000  0.5000000
              0.0000000  0.0000000  0.0000000     0.5000000  0.5000000  0.5000000
              0.0000000  0.0000000  0.0000000     0.5000000  0.5000000  0.5000000
              0.0000000  0.0000000  0.0000000     0.5000000  0.5000000  0.5000000
              0.0000000  0.0000000  0.0000000     0.5000000  0.5000000  0.5000000
              0.0000000  0.0000000  0.0000000     0.5000000  0.5000000  0.5000000
              0.0000000  0.0000000  0.0000000     0.5000000  0.5000000  0.5000000
              0.0000000  0.0000000  0.0000000     0.5000000  0.5000000  0.5000000
              0.0000000  0.0000000  0.0000000     0.5000000  0.5000000  0.5000000
              0.0000000  0.0000000  0.0000000     0.5000000  0.5000000  0.5000000
              0.0000000  0.0000000  0.0000000     0.5000000  0.5000000  0.5000000
              0.0000000  0.0000000  0.0000000     0.5000000  0.5000000  0.5000000
              0.0000000  0.0000000  0.0000000     0.5000000  0.5000000  0.5000000
              0.0000000  0.0000000  0.0000000     0.5000000  0.5000000  0.5000000
              0.0000000  0.0000000  0.0000000     0.5000000  0.5000000  0.5000000
              0.0000000  0.0000000  0.0000000     0.5000000  0.5000000  0.5000000
              0.0000000  0.0000000  0.0000000     0.5000000  0.5000000  0.5000000
              0.0000000  0.0000000  0.0000000     0.5000000  0.5000000  0.5000000
              0.0000000  0.0000000  0.0000000     0.5000000  0.5000000  0.5000000
              0.0000000  0.0000000  0.0000000     0.5000000  0.5000000  0.5000000
    toldfe    1.00000000E-08 Hartree
     typat    2  2  1  1  1  1
    useylm         1
    xangst    0.0000000000E+00  0.0000000000E+00  0.0000000000E+00
              2.1338000000E+00  2.1338000000E+00  2.1338000000E+00
              1.0669000000E+00  1.0669000000E+00  1.0669000000E+00
              1.0669000000E+00 -1.0669000000E+00 -1.0669000000E+00
             -1.0669000000E+00  1.0669000000E+00 -1.0669000000E+00
             -1.0669000000E+00 -1.0669000000E+00  1.0669000000E+00
     xcart    0.0000000000E+00  0.0000000000E+00  0.0000000000E+00
              4.0322976224E+00  4.0322976224E+00  4.0322976224E+00
              2.0161488112E+00  2.0161488112E+00  2.0161488112E+00
              2.0161488112E+00 -2.0161488112E+00 -2.0161488112E+00
             -2.0161488112E+00  2.0161488112E+00 -2.0161488112E+00
             -2.0161488112E+00 -2.0161488112E+00  2.0161488112E+00
      xred    0.0000000000E+00  0.0000000000E+00  0.0000000000E+00
              5.0000000000E-01  5.0000000000E-01  5.0000000000E-01
              2.5000000000E-01  2.5000000000E-01  2.5000000000E-01
              2.5000000000E-01 -2.5000000000E-01 -2.5000000000E-01
             -2.5000000000E-01  2.5000000000E-01 -2.5000000000E-01
             -2.5000000000E-01 -2.5000000000E-01  2.5000000000E-01
     znucl     29.00000    8.00000

================================================================================

 chkinp: Checking input parameters for consistency.

================================================================================
== DATASET  1 ==================================================================

 Real(R)+Recip(G) space primitive vectors, cartesian coordinates (Bohr,Bohr^-1):
 R(1)=  8.0645952  0.0000000  0.0000000  G(1)=  0.1239988  0.0000000  0.0000000
 R(2)=  0.0000000  8.0645952  0.0000000  G(2)=  0.0000000  0.1239988  0.0000000
 R(3)=  0.0000000  0.0000000  8.0645952  G(3)=  0.0000000  0.0000000  0.1239988
 Unit cell volume ucvol=  5.2450270E+02 bohr^3
 Angles (23,13,12)=  9.00000000E+01  9.00000000E+01  9.00000000E+01 degrees

 Coarse grid specifications (used for wave-functions):

 getcut: wavevector=  0.0000  0.0000  0.0000  ngfft=  24  24  24
         ecut(hartree)=     10.000   => boxcut(ratio)=   2.09056

 Fine grid specifications (used for densities):

 getcut: wavevector=  0.0000  0.0000  0.0000  ngfft=  40  40  40
         ecut(hartree)=     30.000   => boxcut(ratio)=   2.01165

--- Pseudopotential description ------------------------------------------------
- pspini: atom type   1  psp file is /home/gonze/ABINIT/ABINITv5.6.3/test_gcc43/5.6.3-private/tests/Psps_for_tests/cu_ps.736.lda
- pspatm: opening atomic psp file    /home/gonze/ABINIT/ABINITv5.6.3/test_gcc43/5.6.3-private/tests/Psps_for_tests/cu_ps.736.lda
 copper - PAW data extracted from US-psp (D.Vanderbilt) - generated by USpp2Abinit v2.2.1
  29.00000  11.00000  20071029                znucl, zion, pspdat
    7    2    2    0       605   0.00000      pspcod,pspxc,lmax,lloc,mmax,r2well
 Pseudopotential format is: paw3
 basis_size (lnmax)=  6 (lmn_size= 18), orbitals=   0   0   1   1   2   2
 Spheres core radius: rc_sph= 2.19286206
 4 radial meshes are used:
  - mesh 1: r(i)=AA*[exp(BB*(i-1))-1], size= 605 , AA= 0.85474E-04 BB= 0.16949E-01
  - mesh 2: r(i)=AA*[exp(BB*(i-1))-1], size= 602 , AA= 0.85474E-04 BB= 0.16949E-01
  - mesh 3: r(i)=AA*[exp(BB*(i-1))-1], size= 644 , AA= 0.85474E-04 BB= 0.16949E-01
  - mesh 4: r(i)=AA*[exp(BB*(i-1))-1], size= 689 , AA= 0.85474E-04 BB= 0.16949E-01
 Shapefunction is BESSEL type: shapef(r,l)=aa(1,l)*jl(q(1,l)*r)+aa(2,l)*jl(q(2,l)*r)
 Radius for shape functions = sphere core radius
 Radial grid used for partial waves is grid 1
 Radial grid used for projectors is grid 2
 Radial grid used for (t)core density is grid 3
 Radial grid used for Vloc is grid 4
 pspatm: atomic psp has been read  and splines computed

- pspini: atom type   2  psp file is /home/gonze/ABINIT/ABINITv5.6.3/test_gcc43/5.6.3-private/tests/Psps_for_tests/o_ps.736.lda
- pspatm: opening atomic psp file    /home/gonze/ABINIT/ABINITv5.6.3/test_gcc43/5.6.3-private/tests/Psps_for_tests/o_ps.736.lda
 oxygen - PAW data extracted from US-psp (D.Vanderbilt) - generated by USpp2Abinit v2.2.1
   8.00000   6.00000  20071017                znucl, zion, pspdat
    7    2    1    0       499   0.00000      pspcod,pspxc,lmax,lloc,mmax,r2well
 Pseudopotential format is: paw3
 basis_size (lnmax)=  4 (lmn_size=  8), orbitals=   0   0   1   1
 Spheres core radius: rc_sph= 1.31818480
 4 radial meshes are used:
  - mesh 1: r(i)=AA*[exp(BB*(i-1))-1], size= 499 , AA= 0.30984E-03 BB= 0.16949E-01
  - mesh 2: r(i)=AA*[exp(BB*(i-1))-1], size= 495 , AA= 0.30984E-03 BB= 0.16949E-01
  - mesh 3: r(i)=AA*[exp(BB*(i-1))-1], size= 506 , AA= 0.30984E-03 BB= 0.16949E-01
  - mesh 4: r(i)=AA*[exp(BB*(i-1))-1], size= 613 , AA= 0.30984E-03 BB= 0.16949E-01
 Shapefunction is BESSEL type: shapef(r,l)=aa(1,l)*jl(q(1,l)*r)+aa(2,l)*jl(q(2,l)*r)
 Radius for shape functions = sphere core radius
 Radial grid used for partial waves is grid 1
 Radial grid used for projectors is grid 2
 Radial grid used for (t)core density is grid 3
 Radial grid used for Vloc is grid 4
 pspatm: atomic psp has been read  and splines computed

   6.62252716E+03                                ecore*ucvol(ha*bohr**3)
--------------------------------------------------------------------------------

P newkpt: treating     29 bands with npw=     784 for ikpt=   1
P newkpt: treating     29 bands with npw=     784 for ikpt=   1

 setup2: Arith. and geom. avg. npw (full set) are     784.000     784.000


******************************************
 LDA+U Method used: FLL
******************************************

================================================================================

     iter   Etot(hartree)      deltaE(h)  residm     nres2    diffor    maxfor
 ETOT  1  -242.86165910840    -2.429E+02 4.895E-01 8.046E+03 1.087E-31 1.087E-31
 ETOT  2  -245.86363092520    -3.002E+00 2.041E-01 4.438E+03 1.087E-31 0.000E+00
 ETOT  3  -237.15875806095     8.705E+00 1.159E+00 5.977E+02 0.000E+00 0.000E+00
 ETOT  4  -237.79076676860    -6.320E-01 2.297E-01 4.173E+02 0.000E+00 0.000E+00
 ETOT  5  -237.58236862516     2.084E-01 4.294E-03 2.586E+02 0.000E+00 0.000E+00
 ETOT  6  -237.21560626772     3.668E-01 3.726E-03 8.684E+01 0.000E+00 0.000E+00
 ETOT  7  -237.07262283368     1.430E-01 1.166E-02 2.058E+01 0.000E+00 0.000E+00
 ETOT  8  -237.05039694766     2.223E-02 2.630E-04 6.199E+00 0.000E+00 0.000E+00
 ETOT  9  -237.04757559124     2.821E-03 8.587E-06 4.015E+00 0.000E+00 0.000E+00
 ETOT 10  -237.03899171219     8.584E-03 9.473E-05 7.543E-01 0.000E+00 0.000E+00
 ETOT 11  -237.03554714257     3.445E-03 1.048E-04 3.657E-02 0.000E+00 0.000E+00
 ETOT 12  -237.03541814158     1.290E-04 2.475E-06 2.189E-03 0.000E+00 0.000E+00
 ETOT 13  -237.03541923238    -1.091E-06 2.550E-07 2.892E-04 0.000E+00 0.000E+00
 ETOT 14  -237.03541771834     1.514E-06 5.062E-07 8.905E-05 0.000E+00 0.000E+00
 ETOT 15  -237.03541767447     4.387E-08 2.052E-08 2.701E-05 0.000E+00 0.000E+00
 ETOT 16  -237.03541764014     3.433E-08 5.693E-09 4.639E-07 0.000E+00 0.000E+00
 ETOT 17  -237.03541765022    -1.009E-08 1.872E-10 1.428E-06 0.000E+00 0.000E+00
 ETOT 18  -237.03541764525     4.978E-09 3.891E-10 1.149E-08 0.000E+00 0.000E+00
 ETOT 19  -237.03541764551    -2.654E-10 7.756E-12 9.644E-09 0.000E+00 0.000E+00

 At SCF step   19, etot is converged :
  for the second time, diff in etot=  2.654E-10 < toldfe=  1.000E-08

 Cartesian components of stress tensor (hartree/bohr^3)
  sigma(1 1)=  1.32381282E-03  sigma(3 2)=  0.00000000E+00
  sigma(2 2)=  1.32381282E-03  sigma(3 1)=  0.00000000E+00
  sigma(3 3)=  1.32381282E-03  sigma(2 1)=  0.00000000E+00


 PAW TEST:
 ==== Compensation charge inside spheres ============
 The following values must be close to each other ...
 Compensation charge over spherical meshes =     29.775764071151571
 Compensation charge over fine fft grid    =     29.775731363201089

 ==== Results concerning PAW augmentation regions ====

 Total pseudopotential strength Dij (hartree):
 Atom #  1 - Spin component 1
   1.01364   2.11490   0.00000   0.00000   0.00000   0.00000   0.00000   0.00000
   2.11490   4.41749   0.00000   0.00000   0.00000   0.00000   0.00000   0.00000
   0.00000   0.00000  -0.28489   0.00000   0.00000  -0.25866   0.00000   0.00000
   0.00000   0.00000   0.00000  -0.28489   0.00000   0.00000  -0.25866   0.00000
   0.00000   0.00000   0.00000   0.00000  -0.28489   0.00000   0.00000  -0.25866
   0.00000   0.00000  -0.25866   0.00000   0.00000  -0.21069   0.00000   0.00000
   0.00000   0.00000   0.00000  -0.25866   0.00000   0.00000  -0.21069   0.00000
   0.00000   0.00000   0.00000   0.00000  -0.25866   0.00000   0.00000  -0.21069
 Atom #  1 - Spin component 2
   1.01364   2.11490   0.00000   0.00000   0.00000   0.00000   0.00000   0.00000
   2.11490   4.41749   0.00000   0.00000   0.00000   0.00000   0.00000   0.00000
   0.00000   0.00000  -0.28489   0.00000   0.00000  -0.25866   0.00000   0.00000
   0.00000   0.00000   0.00000  -0.28489   0.00000   0.00000  -0.25866   0.00000
   0.00000   0.00000   0.00000   0.00000  -0.28489   0.00000   0.00000  -0.25866
   0.00000   0.00000  -0.25866   0.00000   0.00000  -0.21069   0.00000   0.00000
   0.00000   0.00000   0.00000  -0.25866   0.00000   0.00000  -0.21069   0.00000
   0.00000   0.00000   0.00000   0.00000  -0.25866   0.00000   0.00000  -0.21069
 Atom #  6 - Spin component 1
   0.26496   0.74715   0.00000   0.00000   0.00000   0.00000   0.00000   0.00000   0.00017  -0.00017   0.00000  -0.00017 ...
   0.74715   2.09349   0.00000   0.00000   0.00000   0.00000   0.00000   0.00000   0.00047  -0.00047   0.00000  -0.00047 ...
   0.00000   0.00000   0.21692  -0.00016   0.00016   0.34251  -0.00033   0.00033   0.00000   0.00000   0.00000   0.00000 ...
   0.00000   0.00000  -0.00016   0.21692  -0.00016  -0.00033   0.34251  -0.00033   0.00000   0.00000   0.00000   0.00000 ...
   0.00000   0.00000   0.00016  -0.00016   0.21692   0.00033  -0.00033   0.34251   0.00000   0.00000   0.00000   0.00000 ...
   0.00000   0.00000   0.34251  -0.00033   0.00033   0.53330  -0.00062   0.00062   0.00000   0.00000   0.00000   0.00000 ...
   0.00000   0.00000  -0.00033   0.34251  -0.00033  -0.00062   0.53330  -0.00062   0.00000   0.00000   0.00000   0.00000 ...
   0.00000   0.00000   0.00033  -0.00033   0.34251   0.00062  -0.00062   0.53330   0.00000   0.00000   0.00000   0.00000 ...
   0.00017   0.00047   0.00000   0.00000   0.00000   0.00000   0.00000   0.00000  -0.30395  -0.00545   0.00337  -0.00545 ...
  -0.00017  -0.00047   0.00000   0.00000   0.00000   0.00000   0.00000   0.00000  -0.00545  -0.30395   0.00168   0.00545 ...
   0.00000   0.00000   0.00000   0.00000   0.00000   0.00000   0.00000   0.00000   0.00337   0.00168  -0.31227   0.00168 ...
  -0.00017  -0.00047   0.00000   0.00000   0.00000   0.00000   0.00000   0.00000  -0.00545   0.00545   0.00168  -0.30395 ...
   ...  only 12  components have been written...
 Atom #  6 - Spin component 2
   0.26496   0.74715   0.00000   0.00000   0.00000   0.00000   0.00000   0.00000   0.00017  -0.00017   0.00000  -0.00017 ...
   0.74715   2.09349   0.00000   0.00000   0.00000   0.00000   0.00000   0.00000   0.00047  -0.00047   0.00000  -0.00047 ...
   0.00000   0.00000   0.21692  -0.00016   0.00016   0.34251  -0.00033   0.00033   0.00000   0.00000   0.00000   0.00000 ...
   0.00000   0.00000  -0.00016   0.21692  -0.00016  -0.00033   0.34251  -0.00033   0.00000   0.00000   0.00000   0.00000 ...
   0.00000   0.00000   0.00016  -0.00016   0.21692   0.00033  -0.00033   0.34251   0.00000   0.00000   0.00000   0.00000 ...
   0.00000   0.00000   0.34251  -0.00033   0.00033   0.53330  -0.00062   0.00062   0.00000   0.00000   0.00000   0.00000 ...
   0.00000   0.00000  -0.00033   0.34251  -0.00033  -0.00062   0.53330  -0.00062   0.00000   0.00000   0.00000   0.00000 ...
   0.00000   0.00000   0.00033  -0.00033   0.34251   0.00062  -0.00062   0.53330   0.00000   0.00000   0.00000   0.00000 ...
   0.00017   0.00047   0.00000   0.00000   0.00000   0.00000   0.00000   0.00000  -0.30395  -0.00545   0.00337  -0.00545 ...
  -0.00017  -0.00047   0.00000   0.00000   0.00000   0.00000   0.00000   0.00000  -0.00545  -0.30395   0.00168   0.00545 ...
   0.00000   0.00000   0.00000   0.00000   0.00000   0.00000   0.00000   0.00000   0.00337   0.00168  -0.31227   0.00168 ...
  -0.00017  -0.00047   0.00000   0.00000   0.00000   0.00000   0.00000   0.00000  -0.00545   0.00545   0.00168  -0.30395 ...
   ...  only 12  components have been written...


 Augmentation waves occupancies Rhoij:
 Atom #  1 - Spin component 1
   1.22183  -0.08986   0.00000   0.00000   0.00000   0.00000   0.00000   0.00000
  -0.08986   0.01223   0.00000   0.00000   0.00000   0.00000   0.00000   0.00000
   0.00000   0.00000   0.09944   0.00000   0.00000   0.15195   0.00000   0.00000
   0.00000   0.00000   0.00000   0.09944   0.00000   0.00000   0.15195   0.00000
   0.00000   0.00000   0.00000   0.00000   0.09944   0.00000   0.00000   0.15195
   0.00000   0.00000   0.15195   0.00000   0.00000   0.34739   0.00000   0.00000
   0.00000   0.00000   0.00000   0.15195   0.00000   0.00000   0.34739   0.00000
   0.00000   0.00000   0.00000   0.00000   0.15195   0.00000   0.00000   0.34739
 Atom #  1 - Spin component 2
   1.22183  -0.08986   0.00000   0.00000   0.00000   0.00000   0.00000   0.00000
  -0.08986   0.01223   0.00000   0.00000   0.00000   0.00000   0.00000   0.00000
   0.00000   0.00000   0.09944   0.00000   0.00000   0.15195   0.00000   0.00000
   0.00000   0.00000   0.00000   0.09944   0.00000   0.00000   0.15195   0.00000
   0.00000   0.00000   0.00000   0.00000   0.09944   0.00000   0.00000   0.15195
   0.00000   0.00000   0.15195   0.00000   0.00000   0.34739   0.00000   0.00000
   0.00000   0.00000   0.00000   0.15195   0.00000   0.00000   0.34739   0.00000
   0.00000   0.00000   0.00000   0.00000   0.15195   0.00000   0.00000   0.34739
 Atom #  6 - Spin component 1
   1.12750  -0.16516   0.00000   0.00000   0.00000   0.00000   0.00000   0.00000  -0.11249   0.11249   0.00000   0.11249 ...
  -0.16516   0.02512   0.00000   0.00000   0.00000   0.00000   0.00000   0.00000   0.01371  -0.01371   0.00000  -0.01371 ...
   0.00000   0.00000   0.15026  -0.09725   0.09725  -0.03149   0.02367  -0.02367   0.00000   0.00000   0.00000   0.00000 ...
   0.00000   0.00000  -0.09725   0.15026  -0.09725   0.02367  -0.03149   0.02367   0.00000   0.00000   0.00000   0.00000 ...
   0.00000   0.00000   0.09725  -0.09725   0.15026  -0.02367   0.02367  -0.03149   0.00000   0.00000   0.00000   0.00000 ...
   0.00000   0.00000  -0.03149   0.02367  -0.02367   0.00776  -0.00553   0.00553   0.00000   0.00000   0.00000   0.00000 ...
   0.00000   0.00000   0.02367  -0.03149   0.02367  -0.00553   0.00776  -0.00553   0.00000   0.00000   0.00000   0.00000 ...
   0.00000   0.00000  -0.02367   0.02367  -0.03149   0.00553  -0.00553   0.00776   0.00000   0.00000   0.00000   0.00000 ...
  -0.11249   0.01371   0.00000   0.00000   0.00000   0.00000   0.00000   0.00000   0.98847   0.02967  -0.00390   0.02967 ...
   0.11249  -0.01371   0.00000   0.00000   0.00000   0.00000   0.00000   0.00000   0.02967   0.98847  -0.00195  -0.02967 ...
   0.00000   0.00000   0.00000   0.00000   0.00000   0.00000   0.00000   0.00000  -0.00390  -0.00195   1.02243  -0.00195 ...
   0.11249  -0.01371   0.00000   0.00000   0.00000   0.00000   0.00000   0.00000   0.02967  -0.02967  -0.00195   0.98847 ...
   ...  only 12  components have been written...
 Atom #  6 - Spin component 2
   1.12750  -0.16516   0.00000   0.00000   0.00000   0.00000   0.00000   0.00000  -0.11249   0.11249   0.00000   0.11249 ...
  -0.16516   0.02512   0.00000   0.00000   0.00000   0.00000   0.00000   0.00000   0.01371  -0.01371   0.00000  -0.01371 ...
   0.00000   0.00000   0.15026  -0.09725   0.09725  -0.03149   0.02367  -0.02367   0.00000   0.00000   0.00000   0.00000 ...
   0.00000   0.00000  -0.09725   0.15026  -0.09725   0.02367  -0.03149   0.02367   0.00000   0.00000   0.00000   0.00000 ...
   0.00000   0.00000   0.09725  -0.09725   0.15026  -0.02367   0.02367  -0.03149   0.00000   0.00000   0.00000   0.00000 ...
   0.00000   0.00000  -0.03149   0.02367  -0.02367   0.00776  -0.00553   0.00553   0.00000   0.00000   0.00000   0.00000 ...
   0.00000   0.00000   0.02367  -0.03149   0.02367  -0.00553   0.00776  -0.00553   0.00000   0.00000   0.00000   0.00000 ...
   0.00000   0.00000  -0.02367   0.02367  -0.03149   0.00553  -0.00553   0.00776   0.00000   0.00000   0.00000   0.00000 ...
  -0.11249   0.01371   0.00000   0.00000   0.00000   0.00000   0.00000   0.00000   0.98847   0.02967  -0.00390   0.02967 ...
   0.11249  -0.01371   0.00000   0.00000   0.00000   0.00000   0.00000   0.00000   0.02967   0.98847  -0.00195  -0.02967 ...
   0.00000   0.00000   0.00000   0.00000   0.00000   0.00000   0.00000   0.00000  -0.00390  -0.00195   1.02243  -0.00195 ...
   0.11249  -0.01371   0.00000   0.00000   0.00000   0.00000   0.00000   0.00000   0.02967  -0.02967  -0.00195   0.98847 ...
   ...  only 12  components have been written...

 "PAW+U" part of augmentation waves occupancies Rhoij:
 Atom #  3 - L=2 ONLY - Spin component 1
   0.98847  -0.02967  -0.00390  -0.02967   0.00000   0.03985   0.01398   0.00144   0.01398   0.00000
  -0.02967   0.98847   0.00195  -0.02967  -0.00338   0.01398   0.03985  -0.00072   0.01398   0.00124
  -0.00390   0.00195   1.02243   0.00195   0.00000   0.00146  -0.00073   0.02566  -0.00073   0.00000
  -0.02967  -0.02967   0.00195   0.98847   0.00338   0.01398   0.01398  -0.00072   0.03985  -0.00124
   0.00000  -0.00338   0.00000   0.00338   1.02243   0.00000   0.00126   0.00000  -0.00126   0.02566
   0.03985   0.01398   0.00146   0.01398   0.00000   0.01512   0.00984  -0.00305   0.00984   0.00000
   0.01398   0.03985  -0.00073   0.01398   0.00126   0.00984   0.01512   0.00153   0.00984  -0.00264
   0.00144  -0.00072   0.02566  -0.00072   0.00000  -0.00305   0.00153   0.00671   0.00153   0.00000
   0.01398   0.01398  -0.00073   0.03985  -0.00126   0.00984   0.00984   0.00153   0.01512   0.00264
   0.00000   0.00124   0.00000  -0.00124   0.02566   0.00000  -0.00264   0.00000   0.00264   0.00671
 Atom #  3 - L=2 ONLY - Spin component 2
   0.98847  -0.02967  -0.00390  -0.02967   0.00000   0.03985   0.01398   0.00144   0.01398   0.00000
  -0.02967   0.98847   0.00195  -0.02967  -0.00338   0.01398   0.03985  -0.00072   0.01398   0.00124
  -0.00390   0.00195   1.02243   0.00195   0.00000   0.00146  -0.00073   0.02566  -0.00073   0.00000
  -0.02967  -0.02967   0.00195   0.98847   0.00338   0.01398   0.01398  -0.00072   0.03985  -0.00124
   0.00000  -0.00338   0.00000   0.00338   1.02243   0.00000   0.00126   0.00000  -0.00126   0.02566
   0.03985   0.01398   0.00146   0.01398   0.00000   0.01512   0.00984  -0.00305   0.00984   0.00000
   0.01398   0.03985  -0.00073   0.01398   0.00126   0.00984   0.01512   0.00153   0.00984  -0.00264
   0.00144  -0.00072   0.02566  -0.00072   0.00000  -0.00305   0.00153   0.00671   0.00153   0.00000
   0.01398   0.01398  -0.00073   0.03985  -0.00126   0.00984   0.00984   0.00153   0.01512   0.00264
   0.00000   0.00124   0.00000  -0.00124   0.02566   0.00000  -0.00264   0.00000   0.00264   0.00671
 Atom #  4 - L=2 ONLY - Spin component 1
   0.98847   0.02967   0.00390  -0.02967   0.00000   0.03985  -0.01398  -0.00144   0.01398   0.00000
   0.02967   0.98847   0.00195   0.02967  -0.00338  -0.01398   0.03985  -0.00072  -0.01398   0.00124
   0.00390   0.00195   1.02243  -0.00195   0.00000  -0.00146  -0.00073   0.02566   0.00073   0.00000
  -0.02967   0.02967  -0.00195   0.98847  -0.00338   0.01398  -0.01398   0.00072   0.03985   0.00124
   0.00000  -0.00338   0.00000  -0.00338   1.02243   0.00000   0.00126   0.00000   0.00126   0.02566
   0.03985  -0.01398  -0.00146   0.01398   0.00000   0.01512  -0.00984   0.00305   0.00984   0.00000
  -0.01398   0.03985  -0.00073  -0.01398   0.00126  -0.00984   0.01512   0.00153  -0.00984  -0.00264
  -0.00144  -0.00072   0.02566   0.00072   0.00000   0.00305   0.00153   0.00671  -0.00153   0.00000
   0.01398  -0.01398   0.00073   0.03985   0.00126   0.00984  -0.00984  -0.00153   0.01512  -0.00264
   0.00000   0.00124   0.00000   0.00124   0.02566   0.00000  -0.00264   0.00000  -0.00264   0.00671
 Atom #  4 - L=2 ONLY - Spin component 2
   0.98847   0.02967   0.00390  -0.02967   0.00000   0.03985  -0.01398  -0.00144   0.01398   0.00000
   0.02967   0.98847   0.00195   0.02967  -0.00338  -0.01398   0.03985  -0.00072  -0.01398   0.00124
   0.00390   0.00195   1.02243  -0.00195   0.00000  -0.00146  -0.00073   0.02566   0.00073   0.00000
  -0.02967   0.02967  -0.00195   0.98847  -0.00338   0.01398  -0.01398   0.00072   0.03985   0.00124
   0.00000  -0.00338   0.00000  -0.00338   1.02243   0.00000   0.00126   0.00000   0.00126   0.02566
   0.03985  -0.01398  -0.00146   0.01398   0.00000   0.01512  -0.00984   0.00305   0.00984   0.00000
  -0.01398   0.03985  -0.00073  -0.01398   0.00126  -0.00984   0.01512   0.00153  -0.00984  -0.00264
  -0.00144  -0.00072   0.02566   0.00072   0.00000   0.00305   0.00153   0.00671  -0.00153   0.00000
   0.01398  -0.01398   0.00073   0.03985   0.00126   0.00984  -0.00984  -0.00153   0.01512  -0.00264
   0.00000   0.00124   0.00000   0.00124   0.02566   0.00000  -0.00264   0.00000  -0.00264   0.00671
 Atom #  5 - L=2 ONLY - Spin component 1
   0.98847  -0.02967   0.00390   0.02967   0.00000   0.03985   0.01398  -0.00144  -0.01398   0.00000
  -0.02967   0.98847  -0.00195   0.02967   0.00338   0.01398   0.03985   0.00072  -0.01398  -0.00124
   0.00390  -0.00195   1.02243   0.00195   0.00000  -0.00146   0.00073   0.02566  -0.00073   0.00000
   0.02967   0.02967   0.00195   0.98847   0.00338  -0.01398  -0.01398  -0.00072   0.03985  -0.00124
   0.00000   0.00338   0.00000   0.00338   1.02243   0.00000  -0.00126   0.00000  -0.00126   0.02566
   0.03985   0.01398  -0.00146  -0.01398   0.00000   0.01512   0.00984   0.00305  -0.00984   0.00000
   0.01398   0.03985   0.00073  -0.01398  -0.00126   0.00984   0.01512  -0.00153  -0.00984   0.00264
  -0.00144   0.00072   0.02566  -0.00072   0.00000   0.00305  -0.00153   0.00671   0.00153   0.00000
  -0.01398  -0.01398  -0.00073   0.03985  -0.00126  -0.00984  -0.00984   0.00153   0.01512   0.00264
   0.00000  -0.00124   0.00000  -0.00124   0.02566   0.00000   0.00264   0.00000   0.00264   0.00671
 Atom #  5 - L=2 ONLY - Spin component 2
   0.98847  -0.02967   0.00390   0.02967   0.00000   0.03985   0.01398  -0.00144  -0.01398   0.00000
  -0.02967   0.98847  -0.00195   0.02967   0.00338   0.01398   0.03985   0.00072  -0.01398  -0.00124
   0.00390  -0.00195   1.02243   0.00195   0.00000  -0.00146   0.00073   0.02566  -0.00073   0.00000
   0.02967   0.02967   0.00195   0.98847   0.00338  -0.01398  -0.01398  -0.00072   0.03985  -0.00124
   0.00000   0.00338   0.00000   0.00338   1.02243   0.00000  -0.00126   0.00000  -0.00126   0.02566
   0.03985   0.01398  -0.00146  -0.01398   0.00000   0.01512   0.00984   0.00305  -0.00984   0.00000
   0.01398   0.03985   0.00073  -0.01398  -0.00126   0.00984   0.01512  -0.00153  -0.00984   0.00264
  -0.00144   0.00072   0.02566  -0.00072   0.00000   0.00305  -0.00153   0.00671   0.00153   0.00000
  -0.01398  -0.01398  -0.00073   0.03985  -0.00126  -0.00984  -0.00984   0.00153   0.01512   0.00264
   0.00000  -0.00124   0.00000  -0.00124   0.02566   0.00000   0.00264   0.00000   0.00264   0.00671
 Atom #  6 - L=2 ONLY - Spin component 1
   0.98847   0.02967  -0.00390   0.02967   0.00000   0.03985  -0.01398   0.00144  -0.01398   0.00000
   0.02967   0.98847  -0.00195  -0.02967   0.00338  -0.01398   0.03985   0.00072   0.01398  -0.00124
  -0.00390  -0.00195   1.02243  -0.00195   0.00000   0.00146   0.00073   0.02566   0.00073   0.00000
   0.02967  -0.02967  -0.00195   0.98847  -0.00338  -0.01398   0.01398   0.00072   0.03985   0.00124
   0.00000   0.00338   0.00000  -0.00338   1.02243   0.00000  -0.00126   0.00000   0.00126   0.02566
   0.03985  -0.01398   0.00146  -0.01398   0.00000   0.01512  -0.00984  -0.00305  -0.00984   0.00000
  -0.01398   0.03985   0.00073   0.01398  -0.00126  -0.00984   0.01512  -0.00153   0.00984   0.00264
   0.00144   0.00072   0.02566   0.00072   0.00000  -0.00305  -0.00153   0.00671  -0.00153   0.00000
  -0.01398   0.01398   0.00073   0.03985   0.00126  -0.00984   0.00984  -0.00153   0.01512  -0.00264
   0.00000  -0.00124   0.00000   0.00124   0.02566   0.00000   0.00264   0.00000  -0.00264   0.00671
 Atom #  6 - L=2 ONLY - Spin component 2
   0.98847   0.02967  -0.00390   0.02967   0.00000   0.03985  -0.01398   0.00144  -0.01398   0.00000
   0.02967   0.98847  -0.00195  -0.02967   0.00338  -0.01398   0.03985   0.00072   0.01398  -0.00124
  -0.00390  -0.00195   1.02243  -0.00195   0.00000   0.00146   0.00073   0.02566   0.00073   0.00000
   0.02967  -0.02967  -0.00195   0.98847  -0.00338  -0.01398   0.01398   0.00072   0.03985   0.00124
   0.00000   0.00338   0.00000  -0.00338   1.02243   0.00000  -0.00126   0.00000   0.00126   0.02566
   0.03985  -0.01398   0.00146  -0.01398   0.00000   0.01512  -0.00984  -0.00305  -0.00984   0.00000
  -0.01398   0.03985   0.00073   0.01398  -0.00126  -0.00984   0.01512  -0.00153   0.00984   0.00264
   0.00144   0.00072   0.02566   0.00072   0.00000  -0.00305  -0.00153   0.00671  -0.00153   0.00000
  -0.01398   0.01398   0.00073   0.03985   0.00126  -0.00984   0.00984  -0.00153   0.01512  -0.00264
   0.00000  -0.00124   0.00000   0.00124   0.02566   0.00000   0.00264   0.00000  -0.00264   0.00671

---------- LDA+U DATA ---------------------------------------------------

====== For Atom    3, occupations for correlated orbitals. lpawu =   2

Atom   3. Occ. for lpawu and for spin  1 =   4.39009
Atom   3. Occ. for lpawu and for spin  2 =   4.39009
=> On atom   3,  local Mag. for lpawu is     0.99156239E-11

== Occupation matrix for correlated orbitals:

Occupation matrix for spin  1
     0.86153   -0.03684   -0.00540   -0.03684    0.00000
    -0.03684    0.86153    0.00270   -0.03684   -0.00468
    -0.00540    0.00270    0.90274    0.00270    0.00000
    -0.03684   -0.03684    0.00270    0.86153    0.00468
     0.00000   -0.00468    0.00000    0.00468    0.90274


Occupation matrix for spin  2
     0.86153   -0.03684   -0.00540   -0.03684    0.00000
    -0.03684    0.86153    0.00270   -0.03684   -0.00468
    -0.00540    0.00270    0.90274    0.00270    0.00000
    -0.03684   -0.03684    0.00270    0.86153    0.00468
     0.00000   -0.00468    0.00000    0.00468    0.90274


====== For Atom    4, occupations for correlated orbitals. lpawu =   2

Atom   4. Occ. for lpawu and for spin  1 =   4.39009
Atom   4. Occ. for lpawu and for spin  2 =   4.39009
=> On atom   4,  local Mag. for lpawu is     0.99147357E-11

== Occupation matrix for correlated orbitals:

Occupation matrix for spin  1
     0.86153    0.03684    0.00540   -0.03684    0.00000
     0.03684    0.86153    0.00270    0.03684   -0.00468
     0.00540    0.00270    0.90274   -0.00270    0.00000
    -0.03684    0.03684   -0.00270    0.86153   -0.00468
     0.00000   -0.00468    0.00000   -0.00468    0.90274


Occupation matrix for spin  2
     0.86153    0.03684    0.00540   -0.03684    0.00000
     0.03684    0.86153    0.00270    0.03684   -0.00468
     0.00540    0.00270    0.90274   -0.00270    0.00000
    -0.03684    0.03684   -0.00270    0.86153   -0.00468
     0.00000   -0.00468    0.00000   -0.00468    0.90274


====== For Atom    5, occupations for correlated orbitals. lpawu =   2

Atom   5. Occ. for lpawu and for spin  1 =   4.39009
Atom   5. Occ. for lpawu and for spin  2 =   4.39009
=> On atom   5,  local Mag. for lpawu is     0.99156239E-11

== Occupation matrix for correlated orbitals:

Occupation matrix for spin  1
     0.86153   -0.03684    0.00540    0.03684    0.00000
    -0.03684    0.86153   -0.00270    0.03684    0.00468
     0.00540   -0.00270    0.90274    0.00270    0.00000
     0.03684    0.03684    0.00270    0.86153    0.00468
     0.00000    0.00468    0.00000    0.00468    0.90274


Occupation matrix for spin  2
     0.86153   -0.03684    0.00540    0.03684    0.00000
    -0.03684    0.86153   -0.00270    0.03684    0.00468
     0.00540   -0.00270    0.90274    0.00270    0.00000
     0.03684    0.03684    0.00270    0.86153    0.00468
     0.00000    0.00468    0.00000    0.00468    0.90274


====== For Atom    6, occupations for correlated orbitals. lpawu =   2

Atom   6. Occ. for lpawu and for spin  1 =   4.39009
Atom   6. Occ. for lpawu and for spin  2 =   4.39009
=> On atom   6,  local Mag. for lpawu is     0.99147357E-11

== Occupation matrix for correlated orbitals:

Occupation matrix for spin  1
     0.86153    0.03684   -0.00540    0.03684    0.00000
     0.03684    0.86153   -0.00270   -0.03684    0.00468
    -0.00540   -0.00270    0.90274   -0.00270    0.00000
     0.03684   -0.03684   -0.00270    0.86153   -0.00468
     0.00000    0.00468    0.00000   -0.00468    0.90274


Occupation matrix for spin  2
     0.86153    0.03684   -0.00540    0.03684    0.00000
     0.03684    0.86153   -0.00270   -0.03684    0.00468
    -0.00540   -0.00270    0.90274   -0.00270    0.00000
     0.03684   -0.03684   -0.00270    0.86153   -0.00468
     0.00000    0.00468    0.00000   -0.00468    0.90274




 Electric Field Gradient Calculation

 Atom   1, typat   2: Cq =   0.000 MHz     eta =   0.000

      efg eigval :  -0.000
-         eigvec :  -0.998 -0.005 -0.068
      efg eigval :  -0.000
-         eigvec :   0.068  0.004 -0.998
      efg eigval :  -0.000
-         eigvec :  -0.005  1.000  0.004

      total efg :  -0.000 -0.000 -0.000
      total efg :  -0.000 -0.000  0.000
      total efg :  -0.000  0.000 -0.000


      efg_el :   0.000 -0.000 -0.000
      efg_el :  -0.000  0.000 -0.000
      efg_el :  -0.000 -0.000  0.000

      efg_ion :  -0.000 -0.000  0.000
      efg_ion :  -0.000 -0.000  0.000
      efg_ion :   0.000  0.000 -0.000

      efg_paw :   0.000  0.000  0.000
      efg_paw :   0.000 -0.000  0.000
      efg_paw :   0.000  0.000 -0.000

 Atom   2, typat   2: Cq =   0.000 MHz     eta =   0.000

      efg eigval :  -0.000
-         eigvec :   0.961 -0.030 -0.276
      efg eigval :  -0.000
-         eigvec :  -0.263  0.220 -0.940
      efg eigval :  -0.000
-         eigvec :  -0.089 -0.975 -0.203

      total efg :  -0.000  0.000  0.000
      total efg :   0.000 -0.000  0.000
      total efg :   0.000  0.000 -0.000


      efg_el :   0.000 -0.000 -0.000
      efg_el :  -0.000  0.000 -0.000
      efg_el :  -0.000 -0.000  0.000

      efg_ion :  -0.000  0.000  0.000
      efg_ion :   0.000 -0.000  0.000
      efg_ion :   0.000  0.000 -0.000

      efg_paw :   0.000  0.000  0.000
      efg_paw :   0.000 -0.000  0.000
      efg_paw :   0.000  0.000 -0.000

 Atom   3, typat   1: Cq = -38.397 MHz     eta =   0.000

      efg eigval :  -0.743
-         eigvec :  -0.577 -0.577 -0.577
      efg eigval :   0.371
-         eigvec :  -0.815  0.361  0.454
      efg eigval :   0.371
-         eigvec :   0.054 -0.733  0.679

      total efg :  -0.000 -0.371 -0.371
      total efg :  -0.371 -0.000 -0.371
      total efg :  -0.371 -0.371 -0.000


      efg_el :  -0.000 -0.179 -0.179
      efg_el :  -0.179 -0.000 -0.179
      efg_el :  -0.179 -0.179 -0.000

      efg_ion :  -0.000  0.242  0.242
      efg_ion :   0.242 -0.000  0.242
      efg_ion :   0.242  0.242 -0.000

      efg_paw :   0.000 -0.435 -0.435
      efg_paw :  -0.435  0.000 -0.435
      efg_paw :  -0.435 -0.435 -0.000

 Atom   4, typat   1: Cq = -38.397 MHz     eta =   0.000

      efg eigval :  -0.743
-         eigvec :   0.577 -0.577 -0.577
      efg eigval :   0.371
-         eigvec :   0.815  0.367  0.448
      efg eigval :   0.371
-         eigvec :   0.047  0.729 -0.682

      total efg :  -0.000  0.371  0.371
      total efg :   0.371 -0.000 -0.371
      total efg :   0.371 -0.371 -0.000


      efg_el :   0.000  0.179  0.179
      efg_el :   0.179  0.000 -0.179
      efg_el :   0.179 -0.179  0.000

      efg_ion :  -0.000 -0.242 -0.242
      efg_ion :  -0.242 -0.000  0.242
      efg_ion :  -0.242  0.242 -0.000

      efg_paw :  -0.000  0.435  0.435
      efg_paw :   0.435  0.000 -0.435
      efg_paw :   0.435 -0.435 -0.000

 Atom   5, typat   1: Cq = -38.397 MHz     eta =   0.000

      efg eigval :  -0.743
-         eigvec :   0.577 -0.577  0.577
      efg eigval :   0.371
-         eigvec :  -0.814 -0.349  0.465
      efg eigval :   0.371
-         eigvec :   0.067  0.738  0.671

      total efg :  -0.000  0.371 -0.371
      total efg :   0.371 -0.000  0.371
      total efg :  -0.371  0.371 -0.000


      efg_el :   0.000  0.179 -0.179
      efg_el :   0.179 -0.000  0.179
      efg_el :  -0.179  0.179  0.000

      efg_ion :  -0.000 -0.242  0.242
      efg_ion :  -0.242 -0.000 -0.242
      efg_ion :   0.242 -0.242 -0.000

      efg_paw :   0.000  0.435 -0.435
      efg_paw :   0.435  0.000  0.435
      efg_paw :  -0.435  0.435 -0.000

 Atom   6, typat   1: Cq = -38.397 MHz     eta =   0.000

      efg eigval :  -0.743
-         eigvec :  -0.577 -0.577  0.577
      efg eigval :   0.371
-         eigvec :   0.813 -0.345  0.468
      efg eigval :   0.371
-         eigvec :   0.071 -0.740 -0.669

      total efg :  -0.000 -0.371  0.371
      total efg :  -0.371 -0.000  0.371
      total efg :   0.371  0.371 -0.000


      efg_el :  -0.000 -0.179  0.179
      efg_el :  -0.179  0.000  0.179
      efg_el :   0.179  0.179 -0.000

      efg_ion :  -0.000  0.242 -0.242
      efg_ion :   0.242 -0.000 -0.242
      efg_ion :  -0.242 -0.242 -0.000

      efg_paw :   0.000 -0.435  0.435
      efg_paw :  -0.435  0.000  0.435
      efg_paw :   0.435  0.435 -0.000





================================================================================

 ----iterations are completed or convergence reached----

 Mean square residual over all n,k,spin=   1.7772E-12; max=  7.7556E-12
   0.2500  0.2500  0.2500    1  7.75557E-12 kpt; spin; max resid(k); each band:
 1.09E-12 3.38E-13 2.61E-12 2.58E-12 4.43E-12 5.66E-12 3.78E-12 3.70E-12
 6.95E-13 1.73E-13 1.52E-13 5.00E-14 5.03E-14 7.20E-13 3.41E-13 3.37E-13
 6.28E-14 6.27E-14 2.58E-14 8.68E-14 1.12E-13 1.13E-13 3.15E-12 3.35E-12
 2.07E-12 1.75E-12 1.79E-12 4.49E-12 7.76E-12
   0.2500  0.2500  0.2500    2  7.75559E-12 kpt; spin; max resid(k); each band:
 1.09E-12 3.38E-13 2.61E-12 2.58E-12 4.43E-12 5.66E-12 3.78E-12 3.70E-12
 6.95E-13 1.73E-13 1.52E-13 5.00E-14 5.03E-14 7.20E-13 3.41E-13 3.37E-13
 6.28E-14 6.27E-14 2.58E-14 8.68E-14 1.12E-13 1.13E-13 3.15E-12 3.35E-12
 2.08E-12 1.75E-12 1.79E-12 4.49E-12 7.76E-12
 reduced coordinates (array xred) for    6 atoms
       0.000000000000      0.000000000000      0.000000000000
       0.500000000000      0.500000000000      0.500000000000
       0.250000000000      0.250000000000      0.250000000000
       0.250000000000     -0.250000000000     -0.250000000000
      -0.250000000000      0.250000000000     -0.250000000000
      -0.250000000000     -0.250000000000      0.250000000000
 rms dE/dt=  0.0000E+00; max dE/dt=  0.0000E+00; dE/dt below (all hartree)
    1       0.000000000000      0.000000000000      0.000000000000
    2       0.000000000000      0.000000000000      0.000000000000
    3       0.000000000000      0.000000000000      0.000000000000
    4       0.000000000000      0.000000000000      0.000000000000
    5       0.000000000000      0.000000000000      0.000000000000
    6       0.000000000000      0.000000000000      0.000000000000

 cartesian coordinates (angstrom) at end:
    1      0.00000000000000     0.00000000000000     0.00000000000000
    2      2.13380000000000     2.13380000000000     2.13380000000000
    3      1.06690000000000     1.06690000000000     1.06690000000000
    4      1.06690000000000    -1.06690000000000    -1.06690000000000
    5     -1.06690000000000     1.06690000000000    -1.06690000000000
    6     -1.06690000000000    -1.06690000000000     1.06690000000000

 cartesian forces (hartree/bohr) at end:
    1     -0.00000000000000    -0.00000000000000    -0.00000000000000
    2     -0.00000000000000    -0.00000000000000    -0.00000000000000
    3     -0.00000000000000    -0.00000000000000    -0.00000000000000
    4     -0.00000000000000    -0.00000000000000    -0.00000000000000
    5     -0.00000000000000    -0.00000000000000    -0.00000000000000
    6     -0.00000000000000    -0.00000000000000    -0.00000000000000
 frms,max,avg= 0.0000000E+00 0.0000000E+00   0.000E+00  0.000E+00  0.000E+00 h/b

 cartesian forces (eV/Angstrom) at end:
    1     -0.00000000000000    -0.00000000000000    -0.00000000000000
    2     -0.00000000000000    -0.00000000000000    -0.00000000000000
    3     -0.00000000000000    -0.00000000000000    -0.00000000000000
    4     -0.00000000000000    -0.00000000000000    -0.00000000000000
    5     -0.00000000000000    -0.00000000000000    -0.00000000000000
    6     -0.00000000000000    -0.00000000000000    -0.00000000000000
 frms,max,avg= 0.0000000E+00 0.0000000E+00   0.000E+00  0.000E+00  0.000E+00 e/A
 length scales=  8.064595244703  8.064595244703  8.064595244703 bohr
              =  4.267600000000  4.267600000000  4.267600000000 angstroms
 Fermi (or HOMO) energy (hartree) =   0.07959   Average Vxc (hartree)=  -0.44280
 Eigenvalues (hartree) for nkpt=   1  k points, SPIN UP:
 kpt#   1, nband= 29, wtk=  1.00000, kpt=  0.2500  0.2500  0.2500 (reduced coord)
  -0.60292  -0.59082  -0.15237  -0.15237  -0.13055  -0.11801  -0.09104  -0.09104
  -0.03654  -0.02993  -0.02993  -0.01687  -0.01687  -0.01060  -0.00977  -0.00977
  -0.00701  -0.00701  -0.00576   0.00204   0.00355   0.00355   0.01405   0.01405
   0.02490   0.06096   0.06096   0.07959   0.18358
 Eigenvalues (hartree) for nkpt=   1  k points, SPIN DOWN:
 kpt#   1, nband= 29, wtk=  1.00000, kpt=  0.2500  0.2500  0.2500 (reduced coord)
  -0.60292  -0.59082  -0.15237  -0.15237  -0.13055  -0.11801  -0.09104  -0.09104
  -0.03654  -0.02993  -0.02993  -0.01687  -0.01687  -0.01060  -0.00977  -0.00977
  -0.00701  -0.00701  -0.00576   0.00204   0.00355   0.00355   0.01405   0.01405
   0.02490   0.06096   0.06096   0.07959   0.18358
 Total charge density [el/Bohr^3]
,     Maximum=    1.3893E+00  at reduced coord.    0.2500    0.7500    0.7500
,Next maximum=    1.3893E+00  at reduced coord.    0.7500    0.2500    0.7500
,     Minimum=    5.9023E-03  at reduced coord.    0.7500    0.2500    0.2500
,Next minimum=    5.9023E-03  at reduced coord.    0.2500    0.7500    0.2500
 Spin up density      [el/Bohr^3]
,     Maximum=    6.9465E-01  at reduced coord.    0.2500    0.7500    0.7500
,Next maximum=    6.9465E-01  at reduced coord.    0.7500    0.2500    0.7500
,     Minimum=    2.9511E-03  at reduced coord.    0.7500    0.2500    0.2500
,Next minimum=    2.9511E-03  at reduced coord.    0.2500    0.7500    0.2500
 Spin down density    [el/Bohr^3]
,     Maximum=    6.9465E-01  at reduced coord.    0.2500    0.7500    0.7500
,Next maximum=    6.9465E-01  at reduced coord.    0.7500    0.2500    0.7500
,     Minimum=    2.9511E-03  at reduced coord.    0.7500    0.2500    0.2500
,Next minimum=    2.9511E-03  at reduced coord.    0.2500    0.7500    0.2500
 Magnetization (spin up - spin down) [el/Bohr^3]
,     Maximum=    1.0285E-11  at reduced coord.    0.9750    0.9750    0.9750
,Next maximum=    9.9829E-12  at reduced coord.    0.0250    0.9750    0.9750
,     Minimum=   -3.8447E-12  at reduced coord.    0.3000    0.2500    0.2000
,Next minimum=   -3.6617E-12  at reduced coord.    0.2750    0.2750    0.2000
 Relative magnetization (=zeta, between -1 and 1)
,     Maximum=    9.1840E-12  at reduced coord.    0.9750    0.9750    0.9750
,Next maximum=    9.3981E-12  at reduced coord.    0.9500    0.9750    0.9750
,     Minimum=   -2.3955E-11  at reduced coord.    0.7500    0.2500    0.2500
,Next minimum=   -2.3954E-11  at reduced coord.    0.2500    0.7500    0.2500

--------------------------------------------------------------------------------
 Components of total free energy (in Hartree) :

    Kinetic energy  =  3.57323190635961E+01
    Hartree energy  =  5.33460666274285E+01
    XC energy       = -8.14640883040803E+01
    Ewald energy    = -1.66952529334433E+02
    PspCore energy  =  1.26262976138151E+01
    Loc. psp. energy= -1.48980120906547E+02
    Spherical terms =  5.86566334591861E+01
    >>>>>>>>> Etotal= -2.37035421781034E+02

 "Double-counting" decomposition of free energy:
    Band energy     = -3.69107986480904E+00
    Ewald energy    = -1.66952529334433E+02
    PspCore energy  =  1.26262976138151E+01
    Dble-C XC-energy= -8.40962792088684E+01
    Spherical terms =  5.07817314878333E+00
    >>>> Etotal (DC)= -2.37035417645512E+02

  >Total energy in eV           = -6.45006185050073E+03
  >Total DC energy in eV        = -6.45006173796745E+03
--------------------------------------------------------------------------------

 Cartesian components of stress tensor (hartree/bohr^3)
  sigma(1 1)=  1.32381282E-03  sigma(3 2)=  0.00000000E+00
  sigma(2 2)=  1.32381282E-03  sigma(3 1)=  0.00000000E+00
  sigma(3 3)=  1.32381282E-03  sigma(2 1)=  0.00000000E+00

-Cartesian components of stress tensor (GPa)         [Pressure= -3.8948E+01 GPa]
- sigma(1 1)=  3.89479114E+01  sigma(3 2)=  0.00000000E+00
- sigma(2 2)=  3.89479114E+01  sigma(3 1)=  0.00000000E+00
- sigma(3 3)=  3.89479114E+01  sigma(2 1)=  0.00000000E+00

== END DATASET(S) ==============================================================
================================================================================
  
 -outvars: echo values of variables after computation  --------
     acell    8.0645952447E+00  8.0645952447E+00  8.0645952447E+00 Bohr
       amu    6.35460000E+01  1.59994000E+01
      ecut    1.00000000E+01 Hartree
    etotal   -2.3703541765E+02
     fcart   -0.0000000000E+00 -0.0000000000E+00 -0.0000000000E+00
             -0.0000000000E+00 -0.0000000000E+00 -0.0000000000E+00
             -0.0000000000E+00 -0.0000000000E+00 -0.0000000000E+00
             -0.0000000000E+00 -0.0000000000E+00 -0.0000000000E+00
             -0.0000000000E+00 -0.0000000000E+00 -0.0000000000E+00
             -0.0000000000E+00 -0.0000000000E+00 -0.0000000000E+00
       kpt    2.50000000E-01  2.50000000E-01  2.50000000E-01
   kptrlen    1.61291905E+01
    kptopt         1
  kptrlatt    2  0  0   0  2  0   0  0  2
P    mkmem         1
     natom         6
     nband        29
     ngfft        24      24      24
   ngfftdg        40      40      40
      nkpt         1
    nspden         2
    nsppol         2
     nstep        50
      nsym        48
    ntypat         2
       occ    1.000000  1.000000  1.000000  1.000000  1.000000  1.000000
              1.000000  1.000000  1.000000  1.000000  1.000000  1.000000
              1.000000  1.000000  1.000000  1.000000  1.000000  1.000000
              1.000000  1.000000  1.000000  1.000000  1.000000  1.000000
              1.000000  1.000000  1.000000  1.000000  0.000000
              1.000000  1.000000  1.000000  1.000000  1.000000  1.000000
              1.000000  1.000000  1.000000  1.000000  1.000000  1.000000
              1.000000  1.000000  1.000000  1.000000  1.000000  1.000000
              1.000000  1.000000  1.000000  1.000000  1.000000  1.000000
              1.000000  1.000000  1.000000  1.000000  0.000000
 pawecutdg    3.00000000E+01 Hartree
  pawmixdg         1
 dmatpuopt         1
   usepawu         1
     jpawu    3.00000000E-02  0.00000000E+00
     lpawu         2      -1
     upawu    3.00000000E-01  0.00000000E+00
    prtden         0
    prtefg         2
    prteig         0
     prtwf         0
   quadmom    2.20000000E-01 -2.61000000E-02
    shiftk    5.00000000E-01  5.00000000E-01  5.00000000E-01
   spgroup       224
    strten    1.3238128231E-03  1.3238128231E-03  1.3238128231E-03
              0.0000000000E+00  0.0000000000E+00  0.0000000000E+00
    symrel    1  0  0   0  1  0   0  0  1      -1  0  0   0 -1  0   0  0 -1
             -1  0  0   0  1  0   0  0 -1       1  0  0   0 -1  0   0  0  1
             -1  0  0   0 -1  0   0  0  1       1  0  0   0  1  0   0  0 -1
              1  0  0   0 -1  0   0  0 -1      -1  0  0   0  1  0   0  0  1
              0  1  0   1  0  0   0  0  1       0 -1  0  -1  0  0   0  0 -1
              0 -1  0   1  0  0   0  0 -1       0  1  0  -1  0  0   0  0  1
              0 -1  0  -1  0  0   0  0  1       0  1  0   1  0  0   0  0 -1
              0  1  0  -1  0  0   0  0 -1       0 -1  0   1  0  0   0  0  1
              0  0  1   1  0  0   0  1  0       0  0 -1  -1  0  0   0 -1  0
              0  0 -1   1  0  0   0 -1  0       0  0  1  -1  0  0   0  1  0
              0  0 -1  -1  0  0   0  1  0       0  0  1   1  0  0   0 -1  0
              0  0  1  -1  0  0   0 -1  0       0  0 -1   1  0  0   0  1  0
              1  0  0   0  0  1   0  1  0      -1  0  0   0  0 -1   0 -1  0
             -1  0  0   0  0  1   0 -1  0       1  0  0   0  0 -1   0  1  0
             -1  0  0   0  0 -1   0  1  0       1  0  0   0  0  1   0 -1  0
              1  0  0   0  0 -1   0 -1  0      -1  0  0   0  0  1   0  1  0
              0  1  0   0  0  1   1  0  0       0 -1  0   0  0 -1  -1  0  0
              0 -1  0   0  0  1  -1  0  0       0  1  0   0  0 -1   1  0  0
              0 -1  0   0  0 -1   1  0  0       0  1  0   0  0  1  -1  0  0
              0  1  0   0  0 -1  -1  0  0       0 -1  0   0  0  1   1  0  0
              0  0  1   0  1  0   1  0  0       0  0 -1   0 -1  0  -1  0  0
              0  0 -1   0  1  0  -1  0  0       0  0  1   0 -1  0   1  0  0
              0  0 -1   0 -1  0   1  0  0       0  0  1   0  1  0  -1  0  0
              0  0  1   0 -1  0  -1  0  0       0  0 -1   0  1  0   1  0  0
     tnons    0.0000000  0.0000000  0.0000000     0.5000000  0.5000000  0.5000000
              0.0000000  0.0000000  0.0000000     0.5000000  0.5000000  0.5000000
              0.0000000  0.0000000  0.0000000     0.5000000  0.5000000  0.5000000
              0.0000000  0.0000000  0.0000000     0.5000000  0.5000000  0.5000000
              0.0000000  0.0000000  0.0000000     0.5000000  0.5000000  0.5000000
              0.0000000  0.0000000  0.0000000     0.5000000  0.5000000  0.5000000
              0.0000000  0.0000000  0.0000000     0.5000000  0.5000000  0.5000000
              0.0000000  0.0000000  0.0000000     0.5000000  0.5000000  0.5000000
              0.0000000  0.0000000  0.0000000     0.5000000  0.5000000  0.5000000
              0.0000000  0.0000000  0.0000000     0.5000000  0.5000000  0.5000000
              0.0000000  0.0000000  0.0000000     0.5000000  0.5000000  0.5000000
              0.0000000  0.0000000  0.0000000     0.5000000  0.5000000  0.5000000
              0.0000000  0.0000000  0.0000000     0.5000000  0.5000000  0.5000000
              0.0000000  0.0000000  0.0000000     0.5000000  0.5000000  0.5000000
              0.0000000  0.0000000  0.0000000     0.5000000  0.5000000  0.5000000
              0.0000000  0.0000000  0.0000000     0.5000000  0.5000000  0.5000000
              0.0000000  0.0000000  0.0000000     0.5000000  0.5000000  0.5000000
              0.0000000  0.0000000  0.0000000     0.5000000  0.5000000  0.5000000
              0.0000000  0.0000000  0.0000000     0.5000000  0.5000000  0.5000000
              0.0000000  0.0000000  0.0000000     0.5000000  0.5000000  0.5000000
              0.0000000  0.0000000  0.0000000     0.5000000  0.5000000  0.5000000
              0.0000000  0.0000000  0.0000000     0.5000000  0.5000000  0.5000000
              0.0000000  0.0000000  0.0000000     0.5000000  0.5000000  0.5000000
              0.0000000  0.0000000  0.0000000     0.5000000  0.5000000  0.5000000
    toldfe    1.00000000E-08 Hartree
     typat    2  2  1  1  1  1
    useylm         1
    xangst    0.0000000000E+00  0.0000000000E+00  0.0000000000E+00
              2.1338000000E+00  2.1338000000E+00  2.1338000000E+00
              1.0669000000E+00  1.0669000000E+00  1.0669000000E+00
              1.0669000000E+00 -1.0669000000E+00 -1.0669000000E+00
             -1.0669000000E+00  1.0669000000E+00 -1.0669000000E+00
             -1.0669000000E+00 -1.0669000000E+00  1.0669000000E+00
     xcart    0.0000000000E+00  0.0000000000E+00  0.0000000000E+00
              4.0322976224E+00  4.0322976224E+00  4.0322976224E+00
              2.0161488112E+00  2.0161488112E+00  2.0161488112E+00
              2.0161488112E+00 -2.0161488112E+00 -2.0161488112E+00
             -2.0161488112E+00  2.0161488112E+00 -2.0161488112E+00
             -2.0161488112E+00 -2.0161488112E+00  2.0161488112E+00
      xred    0.0000000000E+00  0.0000000000E+00  0.0000000000E+00
              5.0000000000E-01  5.0000000000E-01  5.0000000000E-01
              2.5000000000E-01  2.5000000000E-01  2.5000000000E-01
              2.5000000000E-01 -2.5000000000E-01 -2.5000000000E-01
             -2.5000000000E-01  2.5000000000E-01 -2.5000000000E-01
             -2.5000000000E-01 -2.5000000000E-01  2.5000000000E-01
     znucl     29.00000    8.00000

================================================================================

- Total cpu        time (s,m,h):         23.5        0.39      0.007
- Total wall clock time (s,m,h):         23.5        0.39      0.007

- For major independent code sections, cpu and wall times (sec),
- as well as % of the total time and number of calls 

- routine                 cpu     %       wall     %      number of calls 
-                                                          (-1=no count)
- nonlop(apply)          4.748  20.2      4.689  19.9           5858
- fourwf(pot)            4.685  19.9      4.560  19.4           5858
- pspini                 1.455   6.2      1.455   6.2              1
- vtorho:mknhat          1.292   5.5      1.294   5.5             19
- forces                 1.122   4.8      1.125   4.8             19
- projbd                 1.077   4.6      1.236   5.3           4640
- fourdp                 0.893   3.8      0.882   3.7            476
- xc:pot/=fourdp         0.848   3.6      0.858   3.6            268
- nonlop(forces)         0.727   3.1      0.727   3.1           1102
- vtowfk(ssdiag)         0.636   2.7      0.635   2.7             -1
- pawdenpot              0.541   2.3      0.539   2.3             19
- vtorho:rhoij           0.470   2.0      0.471   2.0             19
- fourwf(den)            0.439   1.9      0.434   1.8           1064
- pawdij                 0.391   1.7      0.392   1.7             19
- timing timab           0.345   1.5      0.345   1.5             11
- vtorho  (1)            0.326   1.4      0.327   1.4             19
- vtorho:ntild+nha       0.293   1.2      0.291   1.2             19
- pawinit                0.258   1.1      0.260   1.1              2
- nhatgrid               0.163   0.7      0.162   0.7              1
- getghc-other           0.146   0.6      0.147   0.6             -1
- 50   others            0.525   2.2      0.529   2.2

- subtotal              21.380  90.9     21.358  90.8

================================================================================

 Calculation completed.
.Delivered    8 WARNINGs and   0 COMMENTs to log file.
+Overall time at end (sec) : cpu=         23.5  wall=         23.5
