
.Version 5.6.3  of ABINIT 
.(sequential version, prepared for a x86_64_linux_gcc4.3 computer) 

.Copyright (C) 1998-2008 ABINIT group . 
 ABINIT comes with ABSOLUTELY NO WARRANTY.
 It is free software, and you are welcome to redistribute it
 under certain conditions (GNU General Public License,
 see ~abinit/COPYING or http://www.gnu.org/copyleft/gpl.txt).

 ABINIT is a project of the Universite Catholique de Louvain,
 Corning Inc. and other collaborators, see ~abinit/doc/developers/contributors.txt .
 Please read ~abinit/doc/users/acknowledgments.html for suggested
 acknowledgments of the ABINIT effort.
 For more information, see http://www.abinit.org .

.Starting date : Thu  6 Nov 2008.
  
- input  file    -> /home/gonze/ABINIT/ABINITv5.6.3/test_gcc43/5.6.3-private/tests/v5/Input/t56.in
- output file    -> t56.out
- root for input  files -> t56i
- root for output files -> t56o


 DATASET    1 : space group P4 m m (# 99); Bravais tP (primitive tetrag.)
================================================================================
 Values of the parameters that define the memory need for DATASET  1.
   intxc =         0  ionmov =         0    iscf =         5 xclevel =         1
  lmnmax =         1   lnmax =         1   mband =         9  mffmem =         1
P  mgfft =        12   mkmem =        40 mpssoang=         1     mpw =        94
  mqgrid =      3001   natom =         1    nfft =      1728    nkpt =        40
  nloalg =         4  nspden =         1 nspinor =         1  nsppol =         1
    nsym =         8  n1xccc =         0  ntypat =         1  occopt =         4
================================================================================
P This job should need less than                       2.142 Mbytes of memory.
  Rough estimation (10% accuracy) of disk space for files :
  WF disk file :      0.518 Mbytes ; DEN or POT disk file :      0.015 Mbytes.
================================================================================

 -outvars: echo values of preprocessed input variables --------
     acell    5.5358000000E+00  5.5358000000E+00  5.5358000000E+00 Bohr
       amu    1.00000000E+00
      ecut    5.00000000E+00 Hartree
      iscf         5
    jdtset      1
  jellslab         1
       kpt    6.25000000E-02  6.25000000E-02  6.25000000E-02
              1.87500000E-01  6.25000000E-02  6.25000000E-02
              3.12500000E-01  6.25000000E-02  6.25000000E-02
              4.37500000E-01  6.25000000E-02  6.25000000E-02
              1.87500000E-01  1.87500000E-01  6.25000000E-02
              3.12500000E-01  1.87500000E-01  6.25000000E-02
              4.37500000E-01  1.87500000E-01  6.25000000E-02
              3.12500000E-01  3.12500000E-01  6.25000000E-02
              4.37500000E-01  3.12500000E-01  6.25000000E-02
              4.37500000E-01  4.37500000E-01  6.25000000E-02
              6.25000000E-02  6.25000000E-02  1.87500000E-01
              1.87500000E-01  6.25000000E-02  1.87500000E-01
              3.12500000E-01  6.25000000E-02  1.87500000E-01
              4.37500000E-01  6.25000000E-02  1.87500000E-01
              1.87500000E-01  1.87500000E-01  1.87500000E-01
              3.12500000E-01  1.87500000E-01  1.87500000E-01
              4.37500000E-01  1.87500000E-01  1.87500000E-01
              3.12500000E-01  3.12500000E-01  1.87500000E-01
              4.37500000E-01  3.12500000E-01  1.87500000E-01
              4.37500000E-01  4.37500000E-01  1.87500000E-01
              6.25000000E-02  6.25000000E-02  3.12500000E-01
              1.87500000E-01  6.25000000E-02  3.12500000E-01
              3.12500000E-01  6.25000000E-02  3.12500000E-01
              4.37500000E-01  6.25000000E-02  3.12500000E-01
              1.87500000E-01  1.87500000E-01  3.12500000E-01
              3.12500000E-01  1.87500000E-01  3.12500000E-01
              4.37500000E-01  1.87500000E-01  3.12500000E-01
              3.12500000E-01  3.12500000E-01  3.12500000E-01
              4.37500000E-01  3.12500000E-01  3.12500000E-01
              4.37500000E-01  4.37500000E-01  3.12500000E-01
              6.25000000E-02  6.25000000E-02  4.37500000E-01
              1.87500000E-01  6.25000000E-02  4.37500000E-01
              3.12500000E-01  6.25000000E-02  4.37500000E-01
              4.37500000E-01  6.25000000E-02  4.37500000E-01
              1.87500000E-01  1.87500000E-01  4.37500000E-01
              3.12500000E-01  1.87500000E-01  4.37500000E-01
              4.37500000E-01  1.87500000E-01  4.37500000E-01
              3.12500000E-01  3.12500000E-01  4.37500000E-01
              4.37500000E-01  3.12500000E-01  4.37500000E-01
              4.37500000E-01  4.37500000E-01  4.37500000E-01
   kptrlen    4.42864000E+01
    kptopt         1
  kptrlatt    8  0  0   0  8  0   0  0  8
P    mkmem        40
     natom         1
     nband         9
    ndtset         1
     ngfft        12      12      12
      nkpt        40
     nstep        10
      nsym         8
    ntypat         1
       occ    2.000000  2.000000  2.000000  2.000000  2.000000  1.999932
              0.000000  0.000000  0.000000
              2.000000  2.000000  2.000000  2.000000  2.000000  1.999932
              0.000000  0.000000  0.000000
              2.000000  2.000000  2.000000  2.000000  2.000000  1.999932
              0.000000  0.000000  0.000000
              2.000000  2.000000  2.000000  2.000000  2.000000  1.999932
              0.000000  0.000000  0.000000
              2.000000  2.000000  2.000000  2.000000  2.000000  1.999932
              0.000000  0.000000  0.000000
              2.000000  2.000000  2.000000  2.000000  2.000000  1.999932
              0.000000  0.000000  0.000000
              2.000000  2.000000  2.000000  2.000000  2.000000  1.999932
              0.000000  0.000000  0.000000
              2.000000  2.000000  2.000000  2.000000  2.000000  1.999932
              0.000000  0.000000  0.000000
              2.000000  2.000000  2.000000  2.000000  2.000000  1.999932
              0.000000  0.000000  0.000000
              2.000000  2.000000  2.000000  2.000000  2.000000  1.999932
              0.000000  0.000000  0.000000
              2.000000  2.000000  2.000000  2.000000  2.000000  1.999932
              0.000000  0.000000  0.000000
              2.000000  2.000000  2.000000  2.000000  2.000000  1.999932
              0.000000  0.000000  0.000000
              2.000000  2.000000  2.000000  2.000000  2.000000  1.999932
              0.000000  0.000000  0.000000
              2.000000  2.000000  2.000000  2.000000  2.000000  1.999932
              0.000000  0.000000  0.000000
              2.000000  2.000000  2.000000  2.000000  2.000000  1.999932
              0.000000  0.000000  0.000000
              2.000000  2.000000  2.000000  2.000000  2.000000  1.999932
              0.000000  0.000000  0.000000
              2.000000  2.000000  2.000000  2.000000  2.000000  1.999932
              0.000000  0.000000  0.000000
              2.000000  2.000000  2.000000  2.000000  2.000000  1.999932
              0.000000  0.000000  0.000000
              2.000000  2.000000  2.000000  2.000000  2.000000  1.999932
              0.000000  0.000000  0.000000
              2.000000  2.000000  2.000000  2.000000  2.000000  1.999932
              0.000000  0.000000  0.000000
              2.000000  2.000000  2.000000  2.000000  2.000000  1.999932
              0.000000  0.000000  0.000000
              2.000000  2.000000  2.000000  2.000000  2.000000  1.999932
              0.000000  0.000000  0.000000
              2.000000  2.000000  2.000000  2.000000  2.000000  1.999932
              0.000000  0.000000  0.000000
              2.000000  2.000000  2.000000  2.000000  2.000000  1.999932
              0.000000  0.000000  0.000000
              2.000000  2.000000  2.000000  2.000000  2.000000  1.999932
              0.000000  0.000000  0.000000
              2.000000  2.000000  2.000000  2.000000  2.000000  1.999932
              0.000000  0.000000  0.000000
              2.000000  2.000000  2.000000  2.000000  2.000000  1.999932
              0.000000  0.000000  0.000000
              2.000000  2.000000  2.000000  2.000000  2.000000  1.999932
              0.000000  0.000000  0.000000
              2.000000  2.000000  2.000000  2.000000  2.000000  1.999932
              0.000000  0.000000  0.000000
              2.000000  2.000000  2.000000  2.000000  2.000000  1.999932
              0.000000  0.000000  0.000000
              2.000000  2.000000  2.000000  2.000000  2.000000  1.999932
              0.000000  0.000000  0.000000
              2.000000  2.000000  2.000000  2.000000  2.000000  1.999932
              0.000000  0.000000  0.000000
              2.000000  2.000000  2.000000  2.000000  2.000000  1.999932
              0.000000  0.000000  0.000000
              2.000000  2.000000  2.000000  2.000000  2.000000  1.999932
              0.000000  0.000000  0.000000
              2.000000  2.000000  2.000000  2.000000  2.000000  1.999932
              0.000000  0.000000  0.000000
              2.000000  2.000000  2.000000  2.000000  2.000000  1.999932
              0.000000  0.000000  0.000000
              2.000000  2.000000  2.000000  2.000000  2.000000  1.999932
              0.000000  0.000000  0.000000
              2.000000  2.000000  2.000000  2.000000  2.000000  1.999932
              0.000000  0.000000  0.000000
              2.000000  2.000000  2.000000  2.000000  2.000000  1.999932
              0.000000  0.000000  0.000000
              2.000000  2.000000  2.000000  2.000000  2.000000  1.999932
              0.000000  0.000000  0.000000
    occopt         4
    prtden         0
     prtwf         0
    shiftk    5.00000000E-01  5.00000000E-01  5.00000000E-01
 slabwsrad    1.50000000E+00
  slabzend    5.53580000E+00
   spgroup        99
    symrel    1  0  0   0  1  0   0  0  1       1  0  0   0 -1  0   0  0  1
             -1  0  0   0 -1  0   0  0  1      -1  0  0   0  1  0   0  0  1
              0  1  0   1  0  0   0  0  1       0  1  0  -1  0  0   0  0  1
              0 -1  0  -1  0  0   0  0  1       0 -1  0   1  0  0   0  0  1
    toldfe    1.00000000E-06 Hartree
    tsmear    1.00000000E-02 Hartree
     typat    1
       wtk      0.01563    0.03125    0.03125    0.03125    0.01563    0.03125
                0.03125    0.01563    0.03125    0.01563    0.01563    0.03125
                0.03125    0.03125    0.01563    0.03125    0.03125    0.01563
                0.03125    0.01563    0.01563    0.03125    0.03125    0.03125
                0.01563    0.03125    0.03125    0.01563    0.03125    0.01563
                0.01563    0.03125    0.03125    0.03125    0.01563    0.03125
                0.03125    0.01563    0.03125    0.01563

================================================================================

 chkinp: Checking input parameters for consistency, jdtset= 1.

================================================================================
== DATASET  1 ==================================================================

 Real(R)+Recip(G) space primitive vectors, cartesian coordinates (Bohr,Bohr^-1):
 R(1)=  5.5358000  0.0000000  0.0000000  G(1)=  0.1806424  0.0000000  0.0000000
 R(2)=  0.0000000  5.5358000  0.0000000  G(2)=  0.0000000  0.1806424  0.0000000
 R(3)=  0.0000000  0.0000000  5.5358000  G(3)=  0.0000000  0.0000000  0.1806424
 Unit cell volume ucvol=  1.6964504E+02 bohr^3
 Angles (23,13,12)=  9.00000000E+01  9.00000000E+01  9.00000000E+01 degrees

 getcut: wavevector=  0.0000  0.0000  0.0000  ngfft=  12  12  12
         ecut(hartree)=      5.000   => boxcut(ratio)=   2.15353

--- Pseudopotential description ------------------------------------------------
- pspini: atom type   1  psp file is /home/gonze/ABINIT/ABINITv5.6.3/test_gcc43/5.6.3-private/tests/Psps_for_tests/dummy_atom
- pspatm: opening atomic psp file    /home/gonze/ABINIT/ABINITv5.6.3/test_gcc43/5.6.3-private/tests/Psps_for_tests/dummy_atom
  Dummy atom with Z=0 for clean jellium calculation (abinit takes covalent radius = 1)
   0.00000   0.00000     31407                znucl, zion, pspdat
    4    1   -1    0      2001   0.00000      pspcod,pspxc,lmax,lloc,mmax,r2well
    0.00000000000000    0.00000000000000    0.00000000000000   rchrg,fchrg,qchrg
 pspatm: epsatm=    0.00000000
         --- l  ekb(1:nproj) -->
 pspatm: atomic psp has been read  and splines computed

--------------------------------------------------------------------------------

P newkpt: treating      9 bands with npw=      84 for ikpt=   1
P newkpt: treating      9 bands with npw=      86 for ikpt=   2
P newkpt: treating      9 bands with npw=      91 for ikpt=   3
P newkpt: treating      9 bands with npw=      94 for ikpt=   4
P newkpt: treating      9 bands with npw=      90 for ikpt=   5
P newkpt: treating      9 bands with npw=      92 for ikpt=   6
P newkpt: treating      9 bands with npw=      94 for ikpt=   7
P newkpt: treating      9 bands with npw=      92 for ikpt=   8
P newkpt: treating      9 bands with npw=      92 for ikpt=   9
P newkpt: treating      9 bands with npw=      92 for ikpt=  10
P newkpt: treating      9 bands with npw=      86 for ikpt=  11
P newkpt: treating      9 bands with npw=      90 for ikpt=  12
P newkpt: treating      9 bands with npw=      92 for ikpt=  13
P newkpt: treating      9 bands with npw=      94 for ikpt=  14
P newkpt: treating      9 bands with npw=      87 for ikpt=  15
P newkpt: treating      9 bands with npw=      89 for ikpt=  16
P newkpt: treating      9 bands with npw=      89 for ikpt=  17
P newkpt: treating      9 bands with npw=      91 for ikpt=  18
P newkpt: treating      9 bands with npw=      91 for ikpt=  19
P newkpt: treating      9 bands with npw=      93 for ikpt=  20
P newkpt: treating      9 bands with npw=      91 for ikpt=  21
P newkpt: treating      9 bands with npw=      92 for ikpt=  22
P newkpt: treating      9 bands with npw=      92 for ikpt=  23
P newkpt: treating      9 bands with npw=      92 for ikpt=  24
P newkpt: treating      9 bands with npw=      89 for ikpt=  25
P newkpt: treating      9 bands with npw=      91 for ikpt=  26
P newkpt: treating      9 bands with npw=      91 for ikpt=  27
P newkpt: treating      9 bands with npw=      90 for ikpt=  28
P newkpt: treating      9 bands with npw=      91 for ikpt=  29
P newkpt: treating      9 bands with npw=      91 for ikpt=  30
P newkpt: treating      9 bands with npw=      94 for ikpt=  31
P newkpt: treating      9 bands with npw=      94 for ikpt=  32
P newkpt: treating      9 bands with npw=      92 for ikpt=  33
P newkpt: treating      9 bands with npw=      92 for ikpt=  34
P newkpt: treating      9 bands with npw=      89 for ikpt=  35
P newkpt: treating      9 bands with npw=      91 for ikpt=  36
P newkpt: treating      9 bands with npw=      93 for ikpt=  37
P newkpt: treating      9 bands with npw=      91 for ikpt=  38
P newkpt: treating      9 bands with npw=      91 for ikpt=  39
P newkpt: treating      9 bands with npw=      88 for ikpt=  40

 setup2: Arith. and geom. avg. npw (full set) are      91.094      91.069

================================================================================

     iter   Etot(hartree)      deltaE(h)  residm     vres2    diffor    maxfor
 ETOT  1   1.6216514440026     1.622E+00 1.008E-03 4.732E-05 1.407E-04 1.407E-04
 ETOT  2   1.6214310369365    -2.204E-04 9.994E-08 5.750E-05 2.972E-04 1.565E-04
 ETOT  3   1.6214308927413    -1.442E-07 3.415E-09 1.348E-05 8.074E-05 7.576E-05
 ETOT  4   1.6214308678712    -2.487E-08 1.429E-08 5.882E-06 2.571E-05 5.006E-05

 At SCF step    4, etot is converged :
  for the second time, diff in etot=  2.487E-08 < toldfe=  1.000E-06

 Cartesian components of stress tensor (hartree/bohr^3)
  sigma(1 1)= -1.54569060E-02  sigma(3 2)=  0.00000000E+00
  sigma(2 2)= -1.54569060E-02  sigma(3 1)=  0.00000000E+00
  sigma(3 3)= -1.54569060E-02  sigma(2 1)=  0.00000000E+00

================================================================================

 ----iterations are completed or convergence reached----

 Mean square residual over all n,k,spin=   1.8318E-10; max=  1.4289E-08
   0.0625  0.0625  0.0625    1  1.88715E-09 kpt; spin; max resid(k); each band:
 2.01E-10 1.45E-10 4.19E-11 8.87E-11 7.89E-11 6.73E-12 7.00E-11 1.89E-09
 4.04E-11
   0.1875  0.0625  0.0625    1  2.02327E-10 kpt; spin; max resid(k); each band:
 2.02E-10 1.30E-10 1.06E-10 7.76E-11 7.42E-11 5.42E-11 6.56E-11 7.61E-11
 6.37E-11
   0.3125  0.0625  0.0625    1  5.43771E-10 kpt; spin; max resid(k); each band:
 1.89E-10 1.86E-10 8.74E-11 7.71E-11 8.09E-11 6.01E-11 8.44E-11 6.70E-11
 5.44E-10
   0.4375  0.0625  0.0625    1  1.42889E-08 kpt; spin; max resid(k); each band:
 1.89E-10 1.61E-10 8.74E-11 7.71E-11 8.61E-11 6.49E-11 8.48E-11 5.71E-11
 1.43E-08
   0.1875  0.1875  0.0625    1  3.52628E-09 kpt; spin; max resid(k); each band:
 2.04E-10 1.89E-10 2.20E-11 1.20E-10 8.82E-11 7.69E-11 1.13E-10 7.04E-12
 3.53E-09
   0.3125  0.1875  0.0625    1  1.94069E-10 kpt; spin; max resid(k); each band:
 1.94E-10 1.59E-10 9.65E-11 1.09E-10 9.39E-11 9.77E-11 9.16E-11 6.01E-11
 1.07E-10
   0.4375  0.1875  0.0625    1  1.87570E-10 kpt; spin; max resid(k); each band:
 1.88E-10 1.66E-10 8.73E-11 8.73E-11 1.03E-10 9.05E-11 1.03E-10 9.09E-11
 6.42E-11
   0.3125  0.3125  0.0625    1  2.43170E-10 kpt; spin; max resid(k); each band:
 1.69E-10 2.12E-10 5.92E-11 9.65E-11 1.18E-10 8.34E-11 1.44E-10 3.63E-11
 2.43E-10
   0.4375  0.3125  0.0625    1  1.72796E-10 kpt; spin; max resid(k); each band:
 1.73E-10 1.60E-10 1.24E-10 1.01E-10 1.18E-10 9.61E-11 9.01E-11 1.05E-10
 9.41E-11
   0.4375  0.4375  0.0625    1  2.24657E-10 kpt; spin; max resid(k); each band:
 1.60E-10 2.25E-10 3.61E-11 1.24E-10 1.24E-10 1.99E-10 3.61E-11 9.97E-11
 9.29E-11
   0.0625  0.0625  0.1875    1  2.09054E-10 kpt; spin; max resid(k); each band:
 2.09E-10 1.43E-10 1.49E-10 4.31E-11 1.13E-10 6.88E-12 8.80E-11 1.19E-10
 3.66E-11
   0.1875  0.0625  0.1875    1  6.82621E-10 kpt; spin; max resid(k); each band:
 2.15E-10 1.28E-10 9.57E-11 9.53E-11 6.59E-11 9.17E-11 7.45E-11 5.41E-11
 6.83E-10
   0.3125  0.0625  0.1875    1  1.89139E-10 kpt; spin; max resid(k); each band:
 1.89E-10 1.35E-10 1.28E-10 1.18E-10 1.00E-10 6.39E-11 8.54E-11 7.58E-11
 1.01E-10
   0.4375  0.0625  0.1875    1  1.80841E-10 kpt; spin; max resid(k); each band:
 1.81E-10 1.57E-10 1.03E-10 1.03E-10 8.72E-11 7.49E-11 8.74E-11 7.54E-11
 8.31E-11
   0.1875  0.1875  0.1875    1  6.30114E-10 kpt; spin; max resid(k); each band:
 1.91E-10 1.49E-10 4.22E-11 1.30E-10 1.05E-10 3.64E-11 7.55E-11 6.30E-10
 1.69E-11
   0.3125  0.1875  0.1875    1  1.87560E-10 kpt; spin; max resid(k); each band:
 1.88E-10 1.30E-10 1.13E-10 1.16E-10 9.40E-11 6.41E-11 9.61E-11 5.70E-11
 5.37E-11
   0.4375  0.1875  0.1875    1  2.25089E-10 kpt; spin; max resid(k); each band:
 1.75E-10 1.40E-10 1.28E-10 1.15E-10 1.05E-10 7.95E-11 1.07E-10 2.25E-10
 7.83E-11
   0.3125  0.3125  0.1875    1  2.24644E-10 kpt; spin; max resid(k); each band:
 1.60E-10 2.25E-10 3.61E-11 1.24E-10 1.24E-10 1.99E-10 3.61E-11 9.82E-11
 8.91E-11
   0.4375  0.3125  0.1875    1  1.60123E-10 kpt; spin; max resid(k); each band:
 1.60E-10 1.36E-10 1.37E-10 1.24E-10 1.24E-10 1.24E-10 1.24E-10 1.24E-10
 7.65E-11
   0.4375  0.4375  0.1875    1  2.24629E-10 kpt; spin; max resid(k); each band:
 1.60E-10 2.25E-10 3.61E-11 1.24E-10 1.24E-10 1.99E-10 3.65E-11 1.24E-10
 8.96E-11
   0.0625  0.0625  0.3125    1  1.76213E-10 kpt; spin; max resid(k); each band:
 1.76E-10 1.51E-10 1.24E-10 4.33E-11 9.21E-11 3.77E-11 1.19E-10 4.19E-11
 1.30E-10
   0.1875  0.0625  0.3125    1  1.82793E-10 kpt; spin; max resid(k); each band:
 1.83E-10 1.45E-10 1.17E-10 1.16E-10 9.98E-11 5.47E-11 9.56E-11 5.34E-11
 9.70E-11
   0.3125  0.0625  0.3125    1  1.54378E-09 kpt; spin; max resid(k); each band:
 1.61E-10 1.31E-10 1.17E-10 1.01E-10 1.11E-10 6.68E-11 9.38E-11 6.38E-11
 1.54E-09
   0.4375  0.0625  0.3125    1  1.57170E-10 kpt; spin; max resid(k); each band:
 1.57E-10 1.44E-10 1.31E-10 1.10E-10 1.11E-10 8.72E-11 7.44E-11 8.72E-11
 9.94E-11
   0.1875  0.1875  0.3125    1  1.79585E-10 kpt; spin; max resid(k); each band:
 1.79E-10 1.43E-10 1.80E-10 4.27E-11 1.44E-10 3.63E-11 8.71E-11 8.81E-11
 6.96E-12
   0.3125  0.1875  0.3125    1  1.51216E-10 kpt; spin; max resid(k); each band:
 1.51E-10 1.37E-10 1.03E-10 1.24E-10 1.24E-10 1.19E-10 1.03E-10 7.96E-11
 9.21E-11
   0.4375  0.1875  0.3125    1  1.51228E-10 kpt; spin; max resid(k); each band:
 1.51E-10 1.30E-10 1.37E-10 1.24E-10 1.24E-10 1.24E-10 1.24E-10 1.24E-10
 6.52E-11
   0.3125  0.3125  0.3125    1  2.12367E-09 kpt; spin; max resid(k); each band:
 1.26E-10 1.67E-10 3.74E-11 1.31E-10 1.44E-10 3.64E-11 1.28E-10 1.24E-10
 2.12E-09
   0.4375  0.3125  0.3125    1  1.69171E-10 kpt; spin; max resid(k); each band:
 1.69E-10 1.27E-10 1.20E-10 1.16E-10 1.19E-10 1.03E-10 1.24E-10 1.24E-10
 1.43E-10
   0.4375  0.4375  0.3125    1  2.24621E-10 kpt; spin; max resid(k); each band:
 1.60E-10 2.25E-10 3.61E-11 1.24E-10 1.24E-10 1.99E-10 3.62E-11 1.24E-10
 7.28E-11
   0.0625  0.0625  0.4375    1  4.37160E-10 kpt; spin; max resid(k); each band:
 1.86E-10 1.73E-10 1.24E-10 4.27E-11 1.21E-10 3.93E-11 1.08E-10 2.41E-11
 4.37E-10
   0.1875  0.0625  0.4375    1  1.85368E-10 kpt; spin; max resid(k); each band:
 1.85E-10 1.71E-10 9.07E-11 8.95E-11 8.94E-11 8.37E-11 8.96E-11 8.39E-11
 5.85E-11
   0.3125  0.0625  0.4375    1  1.63881E-10 kpt; spin; max resid(k); each band:
 1.64E-10 1.58E-10 1.17E-10 1.03E-10 1.11E-10 9.61E-11 8.34E-11 8.61E-11
 9.75E-11
   0.4375  0.0625  0.4375    1  1.51223E-10 kpt; spin; max resid(k); each band:
 1.51E-10 1.37E-10 1.03E-10 1.24E-10 1.24E-10 1.19E-10 1.03E-10 8.18E-11
 9.65E-11
   0.1875  0.1875  0.4375    1  1.77439E-10 kpt; spin; max resid(k); each band:
 1.61E-10 1.29E-10 1.77E-10 4.24E-11 1.62E-10 3.62E-11 1.01E-10 1.23E-10
 2.97E-11
   0.3125  0.1875  0.4375    1  1.51210E-10 kpt; spin; max resid(k); each band:
 1.51E-10 1.36E-10 1.30E-10 1.24E-10 1.24E-10 1.24E-10 1.24E-10 1.24E-10
 6.38E-11
   0.4375  0.1875  0.4375    1  1.51223E-10 kpt; spin; max resid(k); each band:
 1.51E-10 1.37E-10 1.03E-10 1.24E-10 1.24E-10 1.19E-10 1.03E-10 1.24E-10
 7.85E-11
   0.3125  0.3125  0.4375    1  3.41321E-10 kpt; spin; max resid(k); each band:
 1.57E-10 1.39E-10 2.02E-10 3.88E-11 1.99E-10 3.63E-11 1.24E-10 1.24E-10
 3.41E-10
   0.4375  0.3125  0.4375    1  1.51225E-10 kpt; spin; max resid(k); each band:
 1.51E-10 1.37E-10 1.03E-10 1.24E-10 1.24E-10 1.19E-10 1.03E-10 1.24E-10
 6.25E-11
   0.4375  0.4375  0.4375    1  9.84123E-10 kpt; spin; max resid(k); each band:
 1.74E-10 1.53E-10 3.90E-11 1.33E-10 1.44E-10 3.62E-11 1.28E-10 1.24E-10
 9.84E-10
 reduced coordinates (array xred) for    1 atoms
       0.000000000000      0.000000000000      0.000000000000
 rms dE/dt=  1.5999E-04; max dE/dt=  2.7711E-04; dE/dt below (all hartree)
    1       0.000000000000      0.000000000000      0.000277109990

 cartesian coordinates (angstrom) at end:
    1      0.00000000000000     0.00000000000000     0.00000000000000

 cartesian forces (hartree/bohr) at end:
    1     -0.00000000000000    -0.00000000000000     0.00000000000000
 frms,max,avg= 0.0000000E+00 0.0000000E+00   0.000E+00  0.000E+00 -5.006E-05 h/b

 cartesian forces (eV/Angstrom) at end:
    1     -0.00000000000000    -0.00000000000000     0.00000000000000
 frms,max,avg= 0.0000000E+00 0.0000000E+00   0.000E+00  0.000E+00 -2.574E-03 e/A
 length scales=  5.535800000000  5.535800000000  5.535800000000 bohr
              =  2.929419191313  2.929419191313  2.929419191313 angstroms
 prteigrs : about to open file t56o_DS1_EIG
 Fermi (or HOMO) energy (hartree) =   0.34971   Average Vxc (hartree)=  -0.46466
 Eigenvalues (hartree) for nkpt=  40  k points:
 kpt#   1, nband=  9, wtk=  0.01563, kpt=  0.0625  0.0625  0.0625 (reduced coord)
  -0.45711   0.10648   0.10650   0.10650   0.26751   0.26753   0.26753   0.67009
   0.67011
      occupation numbers for kpt#   1
   2.00000   2.00000   2.00000   2.00000   2.00000   2.00000   2.00000   0.00000
   0.00000
 kpt#   2, nband=  9, wtk=  0.03125, kpt=  0.1875  0.0625  0.0625 (reduced coord)
  -0.43699  -0.03441   0.12662   0.12663   0.28765   0.28766   0.44868   0.52919
   0.52921
      occupation numbers for kpt#   2
   2.00000   2.00000   2.00000   2.00000   2.00000   2.00000   0.00000   0.00000
   0.00000
 kpt#   3, nband=  9, wtk=  0.03125, kpt=  0.3125  0.0625  0.0625 (reduced coord)
  -0.39673  -0.15518   0.16687   0.16689   0.32790   0.32792   0.40842   0.40843
   0.56945
      occupation numbers for kpt#   3
   2.00000   2.00000   2.00000   2.00000   2.02020   2.02030   0.00000   0.00000
   0.00000
 kpt#   4, nband=  9, wtk=  0.03125, kpt=  0.4375  0.0625  0.0625 (reduced coord)
  -0.33634  -0.25583   0.22726   0.22727   0.30778   0.30779   0.38829   0.38830
   0.46881
      occupation numbers for kpt#   4
   2.00000   2.00000   2.00000   2.00000   2.00000   2.00000   0.00000   0.00000
   0.00000
 kpt#   5, nband=  9, wtk=  0.01563, kpt=  0.1875  0.1875  0.0625 (reduced coord)
  -0.41686  -0.01428  -0.01427   0.14675   0.30778   0.38830   0.46881   0.46882
   0.54933
      occupation numbers for kpt#   5
   2.00000   2.00000   2.00000   2.00000   2.00000   0.00000   0.00000   0.00000
   0.00000
 kpt#   6, nband=  9, wtk=  0.03125, kpt=  0.3125  0.1875  0.0625 (reduced coord)
  -0.37660  -0.13505   0.02598   0.18701   0.26752   0.34804   0.42856   0.50907
   0.58959
      occupation numbers for kpt#   6
   2.00000   2.00000   2.00000   2.00000   2.00000   1.13206   0.00000   0.00000
   0.00000
 kpt#   7, nband=  9, wtk=  0.03125, kpt=  0.4375  0.1875  0.0625 (reduced coord)
  -0.31621  -0.23570   0.08637   0.16688   0.24740   0.32791   0.40843   0.48894
   0.56946
      occupation numbers for kpt#   7
   2.00000   2.00000   2.00000   2.00000   2.00000   2.02025   0.00000   0.00000
   0.00000
 kpt#   8, nband=  9, wtk=  0.01563, kpt=  0.3125  0.3125  0.0625 (reduced coord)
  -0.33634  -0.09480  -0.09479   0.14675   0.22727   0.38830   0.46881   0.46882
   0.62985
      occupation numbers for kpt#   8
   2.00000   2.00000   2.00000   2.00000   2.00000   0.00000   0.00000   0.00000
   0.00000
 kpt#   9, nband=  9, wtk=  0.03125, kpt=  0.4375  0.3125  0.0625 (reduced coord)
  -0.27595  -0.19544  -0.03441   0.04611   0.28765   0.36817   0.44868   0.52920
   0.52920
      occupation numbers for kpt#   9
   2.00000   2.00000   2.00000   2.00000   2.00000   0.00515   0.00000   0.00000
   0.00000
 kpt#  10, nband=  9, wtk=  0.01563, kpt=  0.4375  0.4375  0.0625 (reduced coord)
  -0.21557  -0.13506  -0.13505  -0.05454   0.34804   0.42855   0.42856   0.50907
   0.50907
      occupation numbers for kpt#  10
   2.00000   2.00000   2.00000   2.00000   1.13206   0.00000   0.00000   0.00000
   0.00000
 kpt#  11, nband=  9, wtk=  0.01563, kpt=  0.0625  0.0625  0.1875 (reduced coord)
  -0.43699  -0.03441   0.12662   0.12663   0.28765   0.28766   0.44868   0.52920
   0.52920
      occupation numbers for kpt#  11
   2.00000   2.00000   2.00000   2.00000   2.00000   2.00000   0.00000   0.00000
   0.00000
 kpt#  12, nband=  9, wtk=  0.03125, kpt=  0.1875  0.0625  0.1875 (reduced coord)
  -0.41686  -0.01429  -0.01427   0.14675   0.30778   0.38830   0.46881   0.46882
   0.54932
      occupation numbers for kpt#  12
   2.00000   2.00000   2.00000   2.00000   2.00000   0.00000   0.00000   0.00000
   0.00000
 kpt#  13, nband=  9, wtk=  0.03125, kpt=  0.3125  0.0625  0.1875 (reduced coord)
  -0.37660  -0.13505   0.02598   0.18701   0.26752   0.34804   0.42856   0.50907
   0.58959
      occupation numbers for kpt#  13
   2.00000   2.00000   2.00000   2.00000   2.00000   1.13206   0.00000   0.00000
   0.00000
 kpt#  14, nband=  9, wtk=  0.03125, kpt=  0.4375  0.0625  0.1875 (reduced coord)
  -0.31621  -0.23570   0.08637   0.16688   0.24740   0.32791   0.40843   0.48894
   0.56946
      occupation numbers for kpt#  14
   2.00000   2.00000   2.00000   2.00000   2.00000   2.02025   0.00000   0.00000
   0.00000
 kpt#  15, nband=  9, wtk=  0.01563, kpt=  0.1875  0.1875  0.1875 (reduced coord)
  -0.39673   0.00584   0.00585   0.00586   0.40841   0.40843   0.40843   0.48893
   0.48895
      occupation numbers for kpt#  15
   2.00000   2.00000   2.00000   2.00000   0.00000   0.00000   0.00000   0.00000
   0.00000
 kpt#  16, nband=  9, wtk=  0.03125, kpt=  0.3125  0.1875  0.1875 (reduced coord)
  -0.35647  -0.11492   0.04610   0.04611   0.28765   0.28766   0.44868   0.52919
   0.52921
      occupation numbers for kpt#  16
   2.00000   2.00000   2.00000   2.00000   2.00000   2.00000   0.00000   0.00000
   0.00000
 kpt#  17, nband=  9, wtk=  0.03125, kpt=  0.4375  0.1875  0.1875 (reduced coord)
  -0.29608  -0.21557   0.10649   0.10650   0.18700   0.18702   0.50907   0.58958
   0.58959
      occupation numbers for kpt#  17
   2.00000   2.00000   2.00000   2.00000   2.00000   2.00000   0.00000   0.00000
   0.00000
 kpt#  18, nband=  9, wtk=  0.01563, kpt=  0.3125  0.3125  0.1875 (reduced coord)
  -0.31621  -0.07467  -0.07466   0.08637   0.16688   0.32791   0.32792   0.56946
   0.56946
      occupation numbers for kpt#  18
   2.00000   2.00000   2.00000   2.00000   2.00000   2.02022   2.02029   0.00000
   0.00000
 kpt#  19, nband=  9, wtk=  0.03125, kpt=  0.4375  0.3125  0.1875 (reduced coord)
  -0.25583  -0.17531  -0.01428   0.06624   0.14675   0.22727   0.38830   0.46881
   0.62984
      occupation numbers for kpt#  19
   2.00000   2.00000   2.00000   2.00000   2.00000   2.00000   0.00000   0.00000
   0.00000
 kpt#  20, nband=  9, wtk=  0.01563, kpt=  0.4375  0.4375  0.1875 (reduced coord)
  -0.19544  -0.11493  -0.11492  -0.03441   0.20714   0.28765   0.28766   0.36817
   0.69023
      occupation numbers for kpt#  20
   2.00000   2.00000   2.00000   2.00000   2.00000   2.00000   2.00000   0.00515
   0.00000
 kpt#  21, nband=  9, wtk=  0.01563, kpt=  0.0625  0.0625  0.3125 (reduced coord)
  -0.39673  -0.15518   0.16688   0.16689   0.32791   0.32792   0.40842   0.40843
   0.56946
      occupation numbers for kpt#  21
   2.00000   2.00000   2.00000   2.00000   2.02022   2.02029   0.00000   0.00000
   0.00000
 kpt#  22, nband=  9, wtk=  0.03125, kpt=  0.1875  0.0625  0.3125 (reduced coord)
  -0.37660  -0.13505   0.02598   0.18701   0.26752   0.34804   0.42856   0.50907
   0.58959
      occupation numbers for kpt#  22
   2.00000   2.00000   2.00000   2.00000   2.00000   1.13206   0.00000   0.00000
   0.00000
 kpt#  23, nband=  9, wtk=  0.03125, kpt=  0.3125  0.0625  0.3125 (reduced coord)
  -0.33634  -0.09480  -0.09479   0.14675   0.22727   0.38830   0.46881   0.46882
   0.62985
      occupation numbers for kpt#  23
   2.00000   2.00000   2.00000   2.00000   2.00000   0.00000   0.00000   0.00000
   0.00000
 kpt#  24, nband=  9, wtk=  0.03125, kpt=  0.4375  0.0625  0.3125 (reduced coord)
  -0.27595  -0.19544  -0.03441   0.04611   0.28765   0.36817   0.44868   0.52920
   0.52920
      occupation numbers for kpt#  24
   2.00000   2.00000   2.00000   2.00000   2.00000   0.00515   0.00000   0.00000
   0.00000
 kpt#  25, nband=  9, wtk=  0.01563, kpt=  0.1875  0.1875  0.3125 (reduced coord)
  -0.35647  -0.11492   0.04610   0.04611   0.28765   0.28766   0.44868   0.52920
   0.52920
      occupation numbers for kpt#  25
   2.00000   2.00000   2.00000   2.00000   2.00000   2.00000   0.00000   0.00000
   0.00000
 kpt#  26, nband=  9, wtk=  0.03125, kpt=  0.3125  0.1875  0.3125 (reduced coord)
  -0.31621  -0.07467  -0.07466   0.08637   0.16688   0.32790   0.32792   0.56946
   0.56946
      occupation numbers for kpt#  26
   2.00000   2.00000   2.00000   2.00000   2.00000   2.02020   2.02030   0.00000
   0.00000
 kpt#  27, nband=  9, wtk=  0.03125, kpt=  0.4375  0.1875  0.3125 (reduced coord)
  -0.25583  -0.17531  -0.01428   0.06624   0.14675   0.22727   0.38830   0.46881
   0.62984
      occupation numbers for kpt#  27
   2.00000   2.00000   2.00000   2.00000   2.00000   2.00000   0.00000   0.00000
   0.00000
 kpt#  28, nband=  9, wtk=  0.01563, kpt=  0.3125  0.3125  0.3125 (reduced coord)
  -0.27595  -0.03442  -0.03440  -0.03440   0.20713   0.20714   0.20715   0.44868
   0.77074
      occupation numbers for kpt#  28
   2.00000   2.00000   2.00000   2.00000   2.00000   2.00000   2.00000   0.00000
   0.00000
 kpt#  29, nband=  9, wtk=  0.03125, kpt=  0.4375  0.3125  0.3125 (reduced coord)
  -0.21557  -0.13505   0.02597   0.02599   0.10649   0.10650   0.26752   0.34804
   0.83114
      occupation numbers for kpt#  29
   2.00000   2.00000   2.00000   2.00000   2.00000   2.00000   2.00000   1.13206
   0.00000
 kpt#  30, nband=  9, wtk=  0.01563, kpt=  0.4375  0.4375  0.3125 (reduced coord)
  -0.15518  -0.07467  -0.07466   0.00585   0.08637   0.16688   0.16689   0.24740
   0.89152
      occupation numbers for kpt#  30
   2.00000   2.00000   2.00000   2.00000   2.00000   2.00000   2.00000   2.00000
   0.00000
 kpt#  31, nband=  9, wtk=  0.01563, kpt=  0.0625  0.0625  0.4375 (reduced coord)
  -0.33634  -0.25583   0.22726   0.22727   0.30778   0.30779   0.38829   0.38830
   0.46881
      occupation numbers for kpt#  31
   2.00000   2.00000   2.00000   2.00000   2.00000   2.00000   0.00000   0.00000
   0.00000
 kpt#  32, nband=  9, wtk=  0.03125, kpt=  0.1875  0.0625  0.4375 (reduced coord)
  -0.31621  -0.23570   0.08637   0.16688   0.24740   0.32791   0.40843   0.48894
   0.56946
      occupation numbers for kpt#  32
   2.00000   2.00000   2.00000   2.00000   2.00000   2.02025   0.00000   0.00000
   0.00000
 kpt#  33, nband=  9, wtk=  0.03125, kpt=  0.3125  0.0625  0.4375 (reduced coord)
  -0.27595  -0.19544  -0.03441   0.04611   0.28765   0.36817   0.44868   0.52920
   0.52920
      occupation numbers for kpt#  33
   2.00000   2.00000   2.00000   2.00000   2.00000   0.00515   0.00000   0.00000
   0.00000
 kpt#  34, nband=  9, wtk=  0.03125, kpt=  0.4375  0.0625  0.4375 (reduced coord)
  -0.21557  -0.13506  -0.13505  -0.05454   0.34804   0.42855   0.42856   0.50907
   0.50907
      occupation numbers for kpt#  34
   2.00000   2.00000   2.00000   2.00000   1.13206   0.00000   0.00000   0.00000
   0.00000
 kpt#  35, nband=  9, wtk=  0.01563, kpt=  0.1875  0.1875  0.4375 (reduced coord)
  -0.29608  -0.21557   0.10649   0.10650   0.18700   0.18701   0.50907   0.58958
   0.58959
      occupation numbers for kpt#  35
   2.00000   2.00000   2.00000   2.00000   2.00000   2.00000   0.00000   0.00000
   0.00000
 kpt#  36, nband=  9, wtk=  0.03125, kpt=  0.3125  0.1875  0.4375 (reduced coord)
  -0.25583  -0.17531  -0.01428   0.06624   0.14675   0.22727   0.38830   0.46881
   0.62984
      occupation numbers for kpt#  36
   2.00000   2.00000   2.00000   2.00000   2.00000   2.00000   0.00000   0.00000
   0.00000
 kpt#  37, nband=  9, wtk=  0.03125, kpt=  0.4375  0.1875  0.4375 (reduced coord)
  -0.19544  -0.11493  -0.11492  -0.03441   0.20714   0.28765   0.28766   0.36817
   0.69023
      occupation numbers for kpt#  37
   2.00000   2.00000   2.00000   2.00000   2.00000   2.00000   2.00000   0.00515
   0.00000
 kpt#  38, nband=  9, wtk=  0.01563, kpt=  0.3125  0.3125  0.4375 (reduced coord)
  -0.21557  -0.13505   0.02597   0.02598   0.10649   0.10650   0.26752   0.34804
   0.83113
      occupation numbers for kpt#  38
   2.00000   2.00000   2.00000   2.00000   2.00000   2.00000   2.00000   1.13206
   0.00000
 kpt#  39, nband=  9, wtk=  0.03125, kpt=  0.4375  0.3125  0.4375 (reduced coord)
  -0.15518  -0.07467  -0.07466   0.00585   0.08637   0.16687   0.16689   0.24740
   0.89152
      occupation numbers for kpt#  39
   2.00000   2.00000   2.00000   2.00000   2.00000   2.00000   2.00000   2.00000
   0.00000
 kpt#  40, nband=  9, wtk=  0.01563, kpt=  0.4375  0.4375  0.4375 (reduced coord)
  -0.09479  -0.01429  -0.01427  -0.01427   0.06622   0.06624   0.06624   0.14675
   1.11294
      occupation numbers for kpt#  40
   2.00000   2.00000   2.00000   2.00000   2.00000   2.00000   2.00000   2.00000
   0.00000
 Total charge density [el/Bohr^3]
,     Maximum=    7.0749E-02  at reduced coord.    0.0000    0.0000    0.0000
,Next maximum=    7.0748E-02  at reduced coord.    0.0000    0.0000    0.0833
,     Minimum=    7.0726E-02  at reduced coord.    0.5000    0.5000    0.8333
,Next minimum=    7.0726E-02  at reduced coord.    0.5000    0.5000    0.9167

--------------------------------------------------------------------------------
 Components of total free energy (in Hartree) :

    Kinetic energy  =  5.89193677618298E+00
    Hartree energy  =  1.04979189220582E-08
    XC energy       = -4.27014440452456E+00
    Ewald energy    =  1.69412687173451E-31
    PspCore energy  =  0.00000000000000E+00
    Loc. psp. energy=  1.43188491637167E-21
    NL   psp  energy=  0.00000000000000E+00
    >>>>> Internal E=  1.62179238215634E+00

    -kT*entropy     = -3.61514285174115E-04
    >>>>>>>>> Etotal=  1.62143086787116E+00

 Other information on the energy :
    Total energy(eV)=  4.41213777480951E+01 ; Band energy (Ha)=   3.1602198809E-01
--------------------------------------------------------------------------------

 Cartesian components of stress tensor (hartree/bohr^3)
  sigma(1 1)= -1.54569060E-02  sigma(3 2)=  0.00000000E+00
  sigma(2 2)= -1.54569060E-02  sigma(3 1)=  0.00000000E+00
  sigma(3 3)= -1.54569060E-02  sigma(2 1)=  0.00000000E+00

-Cartesian components of stress tensor (GPa)         [Pressure=  4.5476E+02 GPa]
- sigma(1 1)= -4.54757799E+02  sigma(3 2)=  0.00000000E+00
- sigma(2 2)= -4.54757799E+02  sigma(3 1)=  0.00000000E+00
- sigma(3 3)= -4.54757799E+02  sigma(2 1)=  0.00000000E+00

== END DATASET(S) ==============================================================
================================================================================
  
 -outvars: echo values of variables after computation  --------
     acell    5.5358000000E+00  5.5358000000E+00  5.5358000000E+00 Bohr
       amu    1.00000000E+00
      ecut    5.00000000E+00 Hartree
    etotal1   1.6214308679E+00
     fcart1  -0.0000000000E+00 -0.0000000000E+00 -5.0057803717E-05
      iscf         5
    jdtset      1
  jellslab         1
       kpt    6.25000000E-02  6.25000000E-02  6.25000000E-02
              1.87500000E-01  6.25000000E-02  6.25000000E-02
              3.12500000E-01  6.25000000E-02  6.25000000E-02
              4.37500000E-01  6.25000000E-02  6.25000000E-02
              1.87500000E-01  1.87500000E-01  6.25000000E-02
              3.12500000E-01  1.87500000E-01  6.25000000E-02
              4.37500000E-01  1.87500000E-01  6.25000000E-02
              3.12500000E-01  3.12500000E-01  6.25000000E-02
              4.37500000E-01  3.12500000E-01  6.25000000E-02
              4.37500000E-01  4.37500000E-01  6.25000000E-02
              6.25000000E-02  6.25000000E-02  1.87500000E-01
              1.87500000E-01  6.25000000E-02  1.87500000E-01
              3.12500000E-01  6.25000000E-02  1.87500000E-01
              4.37500000E-01  6.25000000E-02  1.87500000E-01
              1.87500000E-01  1.87500000E-01  1.87500000E-01
              3.12500000E-01  1.87500000E-01  1.87500000E-01
              4.37500000E-01  1.87500000E-01  1.87500000E-01
              3.12500000E-01  3.12500000E-01  1.87500000E-01
              4.37500000E-01  3.12500000E-01  1.87500000E-01
              4.37500000E-01  4.37500000E-01  1.87500000E-01
              6.25000000E-02  6.25000000E-02  3.12500000E-01
              1.87500000E-01  6.25000000E-02  3.12500000E-01
              3.12500000E-01  6.25000000E-02  3.12500000E-01
              4.37500000E-01  6.25000000E-02  3.12500000E-01
              1.87500000E-01  1.87500000E-01  3.12500000E-01
              3.12500000E-01  1.87500000E-01  3.12500000E-01
              4.37500000E-01  1.87500000E-01  3.12500000E-01
              3.12500000E-01  3.12500000E-01  3.12500000E-01
              4.37500000E-01  3.12500000E-01  3.12500000E-01
              4.37500000E-01  4.37500000E-01  3.12500000E-01
              6.25000000E-02  6.25000000E-02  4.37500000E-01
              1.87500000E-01  6.25000000E-02  4.37500000E-01
              3.12500000E-01  6.25000000E-02  4.37500000E-01
              4.37500000E-01  6.25000000E-02  4.37500000E-01
              1.87500000E-01  1.87500000E-01  4.37500000E-01
              3.12500000E-01  1.87500000E-01  4.37500000E-01
              4.37500000E-01  1.87500000E-01  4.37500000E-01
              3.12500000E-01  3.12500000E-01  4.37500000E-01
              4.37500000E-01  3.12500000E-01  4.37500000E-01
              4.37500000E-01  4.37500000E-01  4.37500000E-01
   kptrlen    4.42864000E+01
    kptopt         1
  kptrlatt    8  0  0   0  8  0   0  0  8
P    mkmem        40
     natom         1
     nband         9
    ndtset         1
     ngfft        12      12      12
      nkpt        40
     nstep        10
      nsym         8
    ntypat         1
       occ    2.000000  2.000000  2.000000  2.000000  2.000000  2.000000
              2.000000  0.000000  0.000000
              2.000000  2.000000  2.000000  2.000000  2.000000  2.000000
              0.000000  0.000000  0.000000
              2.000000  2.000000  2.000000  2.000000  2.020205  2.020303
              0.000000  0.000000  0.000000
              2.000000  2.000000  2.000000  2.000000  2.000000  2.000000
              0.000001  0.000001  0.000000
              2.000000  2.000000  2.000000  2.000000  2.000000  0.000001
              0.000000  0.000000  0.000000
              2.000000  2.000000  2.000000  2.000000  2.000000  1.132056
              0.000000  0.000000  0.000000
              2.000000  2.000000  2.000000  2.000000  2.000000  2.020254
              0.000000  0.000000  0.000000
              2.000000  2.000000  2.000000  2.000000  2.000000  0.000001
              0.000000  0.000000  0.000000
              2.000000  2.000000  2.000000  2.000000  2.000000  0.005155
              0.000000  0.000000  0.000000
              2.000000  2.000000  2.000000  2.000000  1.132056  0.000000
              0.000000  0.000000  0.000000
              2.000000  2.000000  2.000000  2.000000  2.000000  2.000000
              0.000000  0.000000  0.000000
              2.000000  2.000000  2.000000  2.000000  2.000000  0.000001
              0.000000  0.000000  0.000000
              2.000000  2.000000  2.000000  2.000000  2.000000  1.132056
              0.000000  0.000000  0.000000
              2.000000  2.000000  2.000000  2.000000  2.000000  2.020254
              0.000000  0.000000  0.000000
              2.000000  2.000000  2.000000  2.000000  0.000000  0.000000
              0.000000  0.000000  0.000000
              2.000000  2.000000  2.000000  2.000000  2.000000  2.000000
              0.000000  0.000000  0.000000
              2.000000  2.000000  2.000000  2.000000  2.000000  2.000000
              0.000000  0.000000  0.000000
              2.000000  2.000000  2.000000  2.000000  2.000000  2.020220
              2.020288  0.000000  0.000000
              2.000000  2.000000  2.000000  2.000000  2.000000  2.000000
              0.000001  0.000000  0.000000
              2.000000  2.000000  2.000000  2.000000  2.000000  2.000000
              2.000000  0.005155  0.000000
              2.000000  2.000000  2.000000  2.000000  2.020220  2.020288
              0.000000  0.000000  0.000000
              2.000000  2.000000  2.000000  2.000000  2.000000  1.132056
              0.000000  0.000000  0.000000
              2.000000  2.000000  2.000000  2.000000  2.000000  0.000001
              0.000000  0.000000  0.000000
              2.000000  2.000000  2.000000  2.000000  2.000000  0.005155
              0.000000  0.000000  0.000000
              2.000000  2.000000  2.000000  2.000000  2.000000  2.000000
              0.000000  0.000000  0.000000
              2.000000  2.000000  2.000000  2.000000  2.000000  2.020205
              2.020303  0.000000  0.000000
              2.000000  2.000000  2.000000  2.000000  2.000000  2.000000
              0.000001  0.000000  0.000000
              2.000000  2.000000  2.000000  2.000000  2.000000  2.000000
              2.000000  0.000000  0.000000
              2.000000  2.000000  2.000000  2.000000  2.000000  2.000000
              2.000000  1.132055  0.000000
              2.000000  2.000000  2.000000  2.000000  2.000000  2.000000
              2.000000  2.000000  0.000000
              2.000000  2.000000  2.000000  2.000000  2.000000  2.000000
              0.000001  0.000001  0.000000
              2.000000  2.000000  2.000000  2.000000  2.000000  2.020254
              0.000000  0.000000  0.000000
              2.000000  2.000000  2.000000  2.000000  2.000000  0.005155
              0.000000  0.000000  0.000000
              2.000000  2.000000  2.000000  2.000000  1.132056  0.000000
              0.000000  0.000000  0.000000
              2.000000  2.000000  2.000000  2.000000  2.000000  2.000000
              0.000000  0.000000  0.000000
              2.000000  2.000000  2.000000  2.000000  2.000000  2.000000
              0.000001  0.000000  0.000000
              2.000000  2.000000  2.000000  2.000000  2.000000  2.000000
              2.000000  0.005155  0.000000
              2.000000  2.000000  2.000000  2.000000  2.000000  2.000000
              2.000000  1.132055  0.000000
              2.000000  2.000000  2.000000  2.000000  2.000000  2.000000
              2.000000  2.000000  0.000000
              2.000000  2.000000  2.000000  2.000000  2.000000  2.000000
              2.000000  2.000000  0.000000
    occopt         4
    prtden         0
     prtwf         0
    shiftk    5.00000000E-01  5.00000000E-01  5.00000000E-01
 slabwsrad    1.50000000E+00
  slabzend    5.53580000E+00
   spgroup        99
    strten1  -1.5456906027E-02 -1.5456906027E-02 -1.5456906013E-02
              0.0000000000E+00  0.0000000000E+00  0.0000000000E+00
    symrel    1  0  0   0  1  0   0  0  1       1  0  0   0 -1  0   0  0  1
             -1  0  0   0 -1  0   0  0  1      -1  0  0   0  1  0   0  0  1
              0  1  0   1  0  0   0  0  1       0  1  0  -1  0  0   0  0  1
              0 -1  0  -1  0  0   0  0  1       0 -1  0   1  0  0   0  0  1
    toldfe    1.00000000E-06 Hartree
    tsmear    1.00000000E-02 Hartree
     typat    1
       wtk      0.01563    0.03125    0.03125    0.03125    0.01563    0.03125
                0.03125    0.01563    0.03125    0.01563    0.01563    0.03125
                0.03125    0.03125    0.01563    0.03125    0.03125    0.01563
                0.03125    0.01563    0.01563    0.03125    0.03125    0.03125
                0.01563    0.03125    0.03125    0.01563    0.03125    0.01563
                0.01563    0.03125    0.03125    0.03125    0.01563    0.03125
                0.03125    0.01563    0.03125    0.01563

================================================================================

- Total cpu        time (s,m,h):          2.5        0.04      0.001
- Total wall clock time (s,m,h):          2.5        0.04      0.001

- For major independent code sections, cpu and wall times (sec),
- as well as % of the total time and number of calls 

- routine                 cpu     %       wall     %      number of calls 
-                                                          (-1=no count)
- fourwf(pot)            0.696  28.3      0.678  27.6           8224
- vtorho(4)-mkrho-       0.593  24.1      0.594  24.2              8
- timing timab           0.346  14.1      0.346  14.1             11
- vtowfk(ssdiag)         0.130   5.3      0.104   4.2             -1
- projbd                 0.116   4.7      0.113   4.6          12128
- getghc-other           0.095   3.9      0.123   5.0             -1
- invars2                0.075   3.1      0.074   3.0              1
- fourwf(den)            0.050   2.0      0.051   2.1           1044
- nonlop(apply)          0.040   1.6      0.038   1.5           8224
- status                 0.024   1.0      0.019   0.8           3143
- abinit(2)              0.022   0.9      0.023   0.9              1
- vtowfk(contrib)        0.017   0.7      0.025   1.0            160
- vtorho-kpt loop        0.017   0.7      0.014   0.6              4
- inwffil                0.014   0.6      0.015   0.6              1
- 56   others            0.040   1.6      0.036   1.5

- subtotal               2.275  92.6      2.253  91.7

================================================================================

 Calculation completed.
.Delivered    0 WARNINGs and   3 COMMENTs to log file.
+Overall time at end (sec) : cpu=          2.5  wall=          2.5
