
.Version 5.6.3  of ABINIT 
.(sequential version, prepared for a x86_64_linux_gcc4.3 computer) 

.Copyright (C) 1998-2008 ABINIT group . 
 ABINIT comes with ABSOLUTELY NO WARRANTY.
 It is free software, and you are welcome to redistribute it
 under certain conditions (GNU General Public License,
 see ~abinit/COPYING or http://www.gnu.org/copyleft/gpl.txt).

 ABINIT is a project of the Universite Catholique de Louvain,
 Corning Inc. and other collaborators, see ~abinit/doc/developers/contributors.txt .
 Please read ~abinit/doc/users/acknowledgments.html for suggested
 acknowledgments of the ABINIT effort.
 For more information, see http://www.abinit.org .

.Starting date : Thu  6 Nov 2008.
  
- input  file    -> /home/gonze/ABINIT/ABINITv5.6.3/test_gcc43/5.6.3-private/tests/v5/Input/t57.in
- output file    -> t57.out
- root for input  files -> t57i
- root for output files -> t57o


 Symmetries : space group P4 m m (# 99); Bravais tP (primitive tetrag.)
================================================================================
 Values of the parameters that define the memory need of the present run
   intxc =         0  ionmov =         0    iscf =         3 xclevel =         1
  lmnmax =         1   lnmax =         1   mband =         8  mffmem =         1
P  mgfft =        60   mkmem =         1 mpssoang=         1     mpw =      3431
  mqgrid =      3001   natom =         1    nfft =     54000    nkpt =         1
  nloalg =         4  nspden =         1 nspinor =         1  nsppol =         1
    nsym =         8  n1xccc =         0  ntypat =         1  occopt =         4
================================================================================
P This job should need less than                      12.169 Mbytes of memory.
  Rough estimation (10% accuracy) of disk space for files :
  WF disk file :      0.421 Mbytes ; DEN or POT disk file :      0.414 Mbytes.
================================================================================

 -outvars: echo values of preprocessed input variables --------
     acell    1.4762200000E+01  1.4762200000E+01  2.9524400000E+01 Bohr
       amu    1.00000000E+00
    diemac    7.00000000E+00
    diemix    7.00000000E-01
      ecut    5.00000000E+00 Hartree
      iscf         3
  jellslab         1
       kpt    2.50000000E-01  2.50000000E-01  2.50000000E-01
   kptrlen    2.95244000E+04
    kptopt         1
  kptrlatt    2  0  0   0  2  0   0  0  2
P    mkmem         1
     natom         1
     nband         8
     ngfft        30      30      60
      nkpt         1
     nstep        20
      nsym         8
    ntypat         1
       occ    2.000000  2.000000  2.000000  2.000000  2.000000  2.000000
              0.000095  0.000000
    occopt         4
    prtden         0
     prtwf         0
    shiftk    5.00000000E-01  5.00000000E-01  5.00000000E-01
 slabwsrad    4.00000000E+00
  slabzend    1.47622000E+01
   spgroup        99
    symrel    1  0  0   0  1  0   0  0  1       1  0  0   0 -1  0   0  0  1
             -1  0  0   0 -1  0   0  0  1      -1  0  0   0  1  0   0  0  1
              0  1  0   1  0  0   0  0  1       0  1  0  -1  0  0   0  0  1
              0 -1  0  -1  0  0   0  0  1       0 -1  0   1  0  0   0  0  1
    toldfe    1.00000000E-06 Hartree
    tsmear    1.00000000E-02 Hartree
     typat    1

================================================================================

 chkinp: Checking input parameters for consistency.

================================================================================
== DATASET  1 ==================================================================

 Real(R)+Recip(G) space primitive vectors, cartesian coordinates (Bohr,Bohr^-1):
 R(1)= 14.7622000  0.0000000  0.0000000  G(1)=  0.0677406  0.0000000  0.0000000
 R(2)=  0.0000000 14.7622000  0.0000000  G(2)=  0.0000000  0.0677406  0.0000000
 R(3)=  0.0000000  0.0000000 29.5244000  G(3)=  0.0000000  0.0000000  0.0338703
 Unit cell volume ucvol=  6.4340325E+03 bohr^3
 Angles (23,13,12)=  9.00000000E+01  9.00000000E+01  9.00000000E+01 degrees

 getcut: wavevector=  0.0000  0.0000  0.0000  ngfft=  30  30  60
         ecut(hartree)=      5.000   => boxcut(ratio)=   2.01892

--- Pseudopotential description ------------------------------------------------
- pspini: atom type   1  psp file is /home/gonze/ABINIT/ABINITv5.6.3/test_gcc43/5.6.3-private/tests/Psps_for_tests/dummy_atom
- pspatm: opening atomic psp file    /home/gonze/ABINIT/ABINITv5.6.3/test_gcc43/5.6.3-private/tests/Psps_for_tests/dummy_atom
  Dummy atom with Z=0 for clean jellium calculation (abinit takes covalent radius = 1)
   0.00000   0.00000     31407                znucl, zion, pspdat
    4    1   -1    0      2001   0.00000      pspcod,pspxc,lmax,lloc,mmax,r2well
    0.00000000000000    0.00000000000000    0.00000000000000   rchrg,fchrg,qchrg
 pspatm: epsatm=    0.00000000
         --- l  ekb(1:nproj) -->
 pspatm: atomic psp has been read  and splines computed

--------------------------------------------------------------------------------

P newkpt: treating      8 bands with npw=    3431 for ikpt=   1

 setup2: Arith. and geom. avg. npw (full set) are    3431.000    3431.000

================================================================================

     iter   Etot(hartree)      deltaE(h)  residm     vres2    diffor    maxfor
 ETOT  1 -0.86772514660835    -8.677E-01 9.842E-05 6.639E+01 2.891E-03 2.891E-03
 ETOT  2 -0.87208133135169    -4.356E-03 1.321E-09 1.723E+01 8.340E-04 2.057E-03
 ETOT  3 -0.87421066153650    -2.129E-03 5.757E-07 4.369E+00 1.003E-03 1.054E-03
 ETOT  4 -0.87454928119826    -3.386E-04 3.426E-08 2.680E+00 4.595E-04 5.946E-04
 ETOT  5 -0.87464085364828    -9.157E-05 8.858E-08 1.538E+00 8.080E-04 2.135E-04
 ETOT  6 -0.87464974504346    -8.891E-06 4.706E-09 9.838E-01 2.372E-05 2.372E-04
 ETOT  7 -0.87466782681137    -1.808E-05 9.010E-09 2.457E-01 9.780E-06 2.470E-04
 ETOT  8 -0.87468685834978    -1.903E-05 3.862E-10 9.429E-02 6.862E-05 1.783E-04
 ETOT  9 -0.87470298295921    -1.612E-05 9.785E-10 9.354E-03 1.153E-04 6.299E-05
 ETOT 10 -0.87470449425787    -1.511E-06 8.695E-11 5.534E-03 3.381E-05 2.919E-05
 ETOT 11 -0.87470475540010    -2.611E-07 2.429E-10 5.788E-03 3.817E-05 8.983E-06
 ETOT 12 -0.87470470554895     4.985E-08 2.874E-12 4.618E-03 4.353E-06 1.334E-05

 At SCF step   12, etot is converged :
  for the second time, diff in etot=  4.985E-08 < toldfe=  1.000E-06

 Cartesian components of stress tensor (hartree/bohr^3)
  sigma(1 1)=  3.91224770E-04  sigma(3 2)=  0.00000000E+00
  sigma(2 2)=  3.91224770E-04  sigma(3 1)=  0.00000000E+00
  sigma(3 3)=  1.13574238E-03  sigma(2 1)=  0.00000000E+00

================================================================================

 ----iterations are completed or convergence reached----

 Mean square residual over all n,k,spin=   7.9636E-13; max=  2.8737E-12
   0.2500  0.2500  0.2500    1  2.87370E-12 kpt; spin; max resid(k); each band:
 1.53E-12 1.41E-12 8.65E-14 8.51E-14 1.71E-13 1.72E-13 3.31E-14 2.87E-12
 reduced coordinates (array xred) for    1 atoms
       0.000000000000      0.000000000000      0.000000000000
 rms dE/dt=  2.2732E-04; max dE/dt=  3.9373E-04; dE/dt below (all hartree)
    1       0.000000000000      0.000000000000      0.000393730844

 cartesian coordinates (angstrom) at end:
    1      0.00000000000000     0.00000000000000     0.00000000000000

 cartesian forces (hartree/bohr) at end:
    1     -0.00000000000000    -0.00000000000000     0.00000000000000
 frms,max,avg= 0.0000000E+00 0.0000000E+00   0.000E+00  0.000E+00 -1.334E-05 h/b

 cartesian forces (eV/Angstrom) at end:
    1     -0.00000000000000    -0.00000000000000     0.00000000000000
 frms,max,avg= 0.0000000E+00 0.0000000E+00   0.000E+00  0.000E+00 -6.858E-04 e/A
 length scales= 14.762200000000 14.762200000000 29.524400000000 bohr
              =  7.811819788647  7.811819788647 15.623639577295 angstroms
 prteigrs : about to open file t57o_EIG
 Fermi (or HOMO) energy (hartree) =  -0.08743   Average Vxc (hartree)=  -0.12482
 Eigenvalues (hartree) for nkpt=   1  k points:
 kpt#   1, nband=  8, wtk=  1.00000, kpt=  0.2500  0.2500  0.2500 (reduced coord)
  -0.17748  -0.13726  -0.13219  -0.13219  -0.09197  -0.09197  -0.08690  -0.07856
      occupation numbers for kpt#   1
   2.00000   2.00000   2.00000   2.00000   1.61141   1.61141   0.75380   0.02348
 Total charge density [el/Bohr^3]
,     Maximum=    4.2645E-03  at reduced coord.    0.0000    0.0000    0.3667
,Next maximum=    4.2645E-03  at reduced coord.    0.0000    0.9667    0.3667
,     Minimum=    2.4212E-06  at reduced coord.    0.0000    0.0000    0.7500
,Next minimum=    2.4212E-06  at reduced coord.    0.0333    0.0000    0.7500

--------------------------------------------------------------------------------
 Components of total free energy (in Hartree) :

    Kinetic energy  =  8.11512919465413E-01
    Hartree energy  =  2.40973915493845E+00
    XC energy       = -1.69207119936877E+00
    Ewald energy    =  2.55378450975306E+00
    PspCore energy  =  0.00000000000000E+00
    Loc. psp. energy= -4.95238144273067E+00
    NL   psp  energy=  0.00000000000000E+00
    >>>>> Internal E= -8.69416057942513E-01

    -kT*entropy     = -5.28864760643237E-03
    >>>>>>>>> Etotal= -8.74704705548945E-01

 Other information on the energy :
    Total energy(eV)= -2.38019255068406E+01 ; Band energy (Ha)=  -1.5219827313E+00
--------------------------------------------------------------------------------

 Cartesian components of stress tensor (hartree/bohr^3)
  sigma(1 1)=  3.91224770E-04  sigma(3 2)=  0.00000000E+00
  sigma(2 2)=  3.91224770E-04  sigma(3 1)=  0.00000000E+00
  sigma(3 3)=  1.13574238E-03  sigma(2 1)=  0.00000000E+00

-Cartesian components of stress tensor (GPa)         [Pressure= -1.8812E+01 GPa]
- sigma(1 1)=  1.15102282E+01  sigma(3 2)=  0.00000000E+00
- sigma(2 2)=  1.15102282E+01  sigma(3 1)=  0.00000000E+00
- sigma(3 3)=  3.34146888E+01  sigma(2 1)=  0.00000000E+00

== END DATASET(S) ==============================================================
================================================================================
  
 -outvars: echo values of variables after computation  --------
     acell    1.4762200000E+01  1.4762200000E+01  2.9524400000E+01 Bohr
       amu    1.00000000E+00
    diemac    7.00000000E+00
    diemix    7.00000000E-01
      ecut    5.00000000E+00 Hartree
    etotal   -8.7470470555E-01
     fcart   -0.0000000000E+00 -0.0000000000E+00 -1.3335777987E-05
      iscf         3
  jellslab         1
       kpt    2.50000000E-01  2.50000000E-01  2.50000000E-01
   kptrlen    2.95244000E+04
    kptopt         1
  kptrlatt    2  0  0   0  2  0   0  0  2
P    mkmem         1
     natom         1
     nband         8
     ngfft        30      30      60
      nkpt         1
     nstep        20
      nsym         8
    ntypat         1
       occ    2.000000  2.000000  2.000000  2.000000  1.611410  1.611408
              0.753801  0.023476
    occopt         4
    prtden         0
     prtwf         0
    shiftk    5.00000000E-01  5.00000000E-01  5.00000000E-01
 slabwsrad    4.00000000E+00
  slabzend    1.47622000E+01
   spgroup        99
    strten    3.9122476980E-04  3.9122476980E-04  1.1357423786E-03
              0.0000000000E+00  0.0000000000E+00  0.0000000000E+00
    symrel    1  0  0   0  1  0   0  0  1       1  0  0   0 -1  0   0  0  1
             -1  0  0   0 -1  0   0  0  1      -1  0  0   0  1  0   0  0  1
              0  1  0   1  0  0   0  0  1       0  1  0  -1  0  0   0  0  1
              0 -1  0  -1  0  0   0  0  1       0 -1  0   1  0  0   0  0  1
    toldfe    1.00000000E-06 Hartree
    tsmear    1.00000000E-02 Hartree
     typat    1

================================================================================

- Total cpu        time (s,m,h):          3.6        0.06      0.001
- Total wall clock time (s,m,h):          3.6        0.06      0.001

- For major independent code sections, cpu and wall times (sec),
- as well as % of the total time and number of calls 

- routine                 cpu     %       wall     %      number of calls 
-                                                          (-1=no count)
- fourwf(pot)            1.829  50.6      1.842  50.9            546
- timing timab           0.346   9.6      0.346   9.6             11
- projbd                 0.204   5.6      0.209   5.8            868
- fourwf(den)            0.174   4.8      0.176   4.9             96
- symrhg(no FFT)         0.148   4.1      0.145   4.0             12
- fourdp                 0.137   3.8      0.140   3.9             64
- invars2                0.104   2.9      0.105   2.9              1
- forces                 0.061   1.7      0.061   1.7             12
- xc:pot/=fourdp         0.057   1.6      0.061   1.7             13
- vtowfk(ssdiag)         0.045   1.2      0.042   1.2             -1
- getghc-other           0.037   1.0      0.032   0.9             -1
- abinit(2)              0.031   0.9      0.030   0.8              1
- mkrho/=                0.020   0.6      0.018   0.5             24
- vtorho(4)-mkrho-       0.020   0.6      0.018   0.5             24
- 56   others            0.079   2.2      0.080   2.2

- subtotal               3.292  91.0      3.305  91.4

================================================================================

 Calculation completed.
.Delivered    3 WARNINGs and   2 COMMENTs to log file.
+Overall time at end (sec) : cpu=          3.6  wall=          3.6
