
.Version 5.6.3  of ABINIT 
.(sequential version, prepared for a x86_64_linux_gcc4.3 computer) 

.Copyright (C) 1998-2008 ABINIT group . 
 ABINIT comes with ABSOLUTELY NO WARRANTY.
 It is free software, and you are welcome to redistribute it
 under certain conditions (GNU General Public License,
 see ~abinit/COPYING or http://www.gnu.org/copyleft/gpl.txt).

 ABINIT is a project of the Universite Catholique de Louvain,
 Corning Inc. and other collaborators, see ~abinit/doc/developers/contributors.txt .
 Please read ~abinit/doc/users/acknowledgments.html for suggested
 acknowledgments of the ABINIT effort.
 For more information, see http://www.abinit.org .

.Starting date : Thu  6 Nov 2008.
  
- input  file    -> /home/gonze/ABINIT/ABINITv5.6.3/test_gcc43/5.6.3-private/tests/v5/Input/t58.in
- output file    -> t58.out
- root for input  files -> t58i
- root for output files -> t58o


 Symmetries : space group P4 m m (# 99); Bravais tP (primitive tetrag.)
================================================================================
 Values of the parameters that define the memory need of the present run
   intxc =         0  ionmov =         2    iscf =         3 xclevel =         1
  lmnmax =         2   lnmax =         2   mband =         3  mffmem =         1
P  mgfft =        48   mkmem =        42 mpssoang=         3     mpw =       662
  mqgrid =      3001   natom =         1    nfft =     12288    nkpt =        42
  nloalg =         4  nspden =         1 nspinor =         1  nsppol =         1
    nsym =         8  n1xccc =      2501  ntypat =         1  occopt =         4
================================================================================
P This job should need less than                       5.382 Mbytes of memory.
  Rough estimation (10% accuracy) of disk space for files :
  WF disk file :      1.275 Mbytes ; DEN or POT disk file :      0.096 Mbytes.
================================================================================

 -outvars: echo values of preprocessed input variables --------
     acell    7.4000000000E+00  7.4000000000E+00  2.2200000000E+01 Bohr
       amu    2.29897680E+01
    diemac    7.00000000E+00
    diemix    7.00000000E-01
      ecut    5.00000000E+00 Hartree
    ionmov         2
      iscf         3
  jellslab         1
       kpt    4.16666667E-02  4.16666667E-02  1.25000000E-01
              1.25000000E-01  4.16666667E-02  1.25000000E-01
              2.08333333E-01  4.16666667E-02  1.25000000E-01
              2.91666667E-01  4.16666667E-02  1.25000000E-01
              3.75000000E-01  4.16666667E-02  1.25000000E-01
              4.58333333E-01  4.16666667E-02  1.25000000E-01
              1.25000000E-01  1.25000000E-01  1.25000000E-01
              2.08333333E-01  1.25000000E-01  1.25000000E-01
              2.91666667E-01  1.25000000E-01  1.25000000E-01
              3.75000000E-01  1.25000000E-01  1.25000000E-01
              4.58333333E-01  1.25000000E-01  1.25000000E-01
              2.08333333E-01  2.08333333E-01  1.25000000E-01
              2.91666667E-01  2.08333333E-01  1.25000000E-01
              3.75000000E-01  2.08333333E-01  1.25000000E-01
              4.58333333E-01  2.08333333E-01  1.25000000E-01
              2.91666667E-01  2.91666667E-01  1.25000000E-01
              3.75000000E-01  2.91666667E-01  1.25000000E-01
              4.58333333E-01  2.91666667E-01  1.25000000E-01
              3.75000000E-01  3.75000000E-01  1.25000000E-01
              4.58333333E-01  3.75000000E-01  1.25000000E-01
              4.58333333E-01  4.58333333E-01  1.25000000E-01
              4.16666667E-02  4.16666667E-02  3.75000000E-01
              1.25000000E-01  4.16666667E-02  3.75000000E-01
              2.08333333E-01  4.16666667E-02  3.75000000E-01
              2.91666667E-01  4.16666667E-02  3.75000000E-01
              3.75000000E-01  4.16666667E-02  3.75000000E-01
              4.58333333E-01  4.16666667E-02  3.75000000E-01
              1.25000000E-01  1.25000000E-01  3.75000000E-01
              2.08333333E-01  1.25000000E-01  3.75000000E-01
              2.91666667E-01  1.25000000E-01  3.75000000E-01
              3.75000000E-01  1.25000000E-01  3.75000000E-01
              4.58333333E-01  1.25000000E-01  3.75000000E-01
              2.08333333E-01  2.08333333E-01  3.75000000E-01
              2.91666667E-01  2.08333333E-01  3.75000000E-01
              3.75000000E-01  2.08333333E-01  3.75000000E-01
              4.58333333E-01  2.08333333E-01  3.75000000E-01
              2.91666667E-01  2.91666667E-01  3.75000000E-01
              3.75000000E-01  2.91666667E-01  3.75000000E-01
              4.58333333E-01  2.91666667E-01  3.75000000E-01
              3.75000000E-01  3.75000000E-01  3.75000000E-01
              4.58333333E-01  3.75000000E-01  3.75000000E-01
              4.58333333E-01  4.58333333E-01  3.75000000E-01
   kptrlen    8.88000000E+01
    kptopt         1
  kptrlatt   12  0  0   0 12  0   0  0  4
P    mkmem        42
     natom         1
     nband         3
     ngfft        16      16      48
      nkpt        42
      nsym         8
     ntime         5
    ntypat         1
       occ    2.000000  1.883080  0.000000
              2.000000  1.883080  0.000000
              2.000000  1.883080  0.000000
              2.000000  1.883080  0.000000
              2.000000  1.883080  0.000000
              2.000000  1.883080  0.000000
              2.000000  1.883080  0.000000
              2.000000  1.883080  0.000000
              2.000000  1.883080  0.000000
              2.000000  1.883080  0.000000
              2.000000  1.883080  0.000000
              2.000000  1.883080  0.000000
              2.000000  1.883080  0.000000
              2.000000  1.883080  0.000000
              2.000000  1.883080  0.000000
              2.000000  1.883080  0.000000
              2.000000  1.883080  0.000000
              2.000000  1.883080  0.000000
              2.000000  1.883080  0.000000
              2.000000  1.883080  0.000000
              2.000000  1.883080  0.000000
              2.000000  1.883080  0.000000
              2.000000  1.883080  0.000000
              2.000000  1.883080  0.000000
              2.000000  1.883080  0.000000
              2.000000  1.883080  0.000000
              2.000000  1.883080  0.000000
              2.000000  1.883080  0.000000
              2.000000  1.883080  0.000000
              2.000000  1.883080  0.000000
              2.000000  1.883080  0.000000
              2.000000  1.883080  0.000000
              2.000000  1.883080  0.000000
              2.000000  1.883080  0.000000
              2.000000  1.883080  0.000000
              2.000000  1.883080  0.000000
              2.000000  1.883080  0.000000
              2.000000  1.883080  0.000000
              2.000000  1.883080  0.000000
              2.000000  1.883080  0.000000
              2.000000  1.883080  0.000000
              2.000000  1.883080  0.000000
    occopt         4
    prtden         0
     prtwf         0
    shiftk    5.00000000E-01  5.00000000E-01  5.00000000E-01
 slabwsrad    2.56000000E+00
  slabzbeg    7.40000000E+00
  slabzend    1.11000000E+01
   spgroup        99
    symrel    1  0  0   0  1  0   0  0  1       1  0  0   0 -1  0   0  0  1
             -1  0  0   0 -1  0   0  0  1      -1  0  0   0  1  0   0  0  1
              0  1  0   1  0  0   0  0  1       0  1  0  -1  0  0   0  0  1
              0 -1  0  -1  0  0   0  0  1       0 -1  0   1  0  0   0  0  1
    toldff    1.00000000E-06
    tsmear    1.00000000E-02 Hartree
     typat    1
       wtk      0.01389    0.02778    0.02778    0.02778    0.02778    0.02778
                0.01389    0.02778    0.02778    0.02778    0.02778    0.01389
                0.02778    0.02778    0.02778    0.01389    0.02778    0.02778
                0.01389    0.02778    0.01389    0.01389    0.02778    0.02778
                0.02778    0.02778    0.02778    0.01389    0.02778    0.02778
                0.02778    0.02778    0.01389    0.02778    0.02778    0.02778
                0.01389    0.02778    0.02778    0.01389    0.02778    0.01389
    xangst    0.0000000000E+00  0.0000000000E+00  2.1082314155E+00
     xcart    0.0000000000E+00  0.0000000000E+00  3.9839800000E+00
      xred    0.0000000000E+00  0.0000000000E+00  1.7945855856E-01
     znucl     11.00000

================================================================================

 chkinp: Checking input parameters for consistency.

================================================================================
== DATASET  1 ==================================================================

 Real(R)+Recip(G) space primitive vectors, cartesian coordinates (Bohr,Bohr^-1):
 R(1)=  7.4000000  0.0000000  0.0000000  G(1)=  0.1351351  0.0000000  0.0000000
 R(2)=  0.0000000  7.4000000  0.0000000  G(2)=  0.0000000  0.1351351  0.0000000
 R(3)=  0.0000000  0.0000000 22.2000000  G(3)=  0.0000000  0.0000000  0.0450450
 Unit cell volume ucvol=  1.2156720E+03 bohr^3
 Angles (23,13,12)=  9.00000000E+01  9.00000000E+01  9.00000000E+01 degrees

 getcut: wavevector=  0.0000  0.0000  0.0000  ngfft=  16  16  48
         ecut(hartree)=      5.000   => boxcut(ratio)=   2.14802

--- Pseudopotential description ------------------------------------------------
- pspini: atom type   1  psp file is /home/gonze/ABINIT/ABINITv5.6.3/test_gcc43/5.6.3-private/tests/Psps_for_tests/11na.pspnc
- pspatm: opening atomic psp file    /home/gonze/ABINIT/ABINITv5.6.3/test_gcc43/5.6.3-private/tests/Psps_for_tests/11na.pspnc
  Troullier-Martins psp for element  Na        Mon Oct 31 11:14:49 EST 1994
  11.00000   1.00000    940714                znucl, zion, pspdat
    1    1    2    2      2001   0.00000      pspcod,pspxc,lmax,lloc,mmax,r2well
    0   2.613   6.900    1   2.9359409        l,e99.0,e99.9,nproj,rcpsp
   0.00000000   0.00000000   0.00000000   0.00000000     rms, ekb1, ekb2, epsatm
    1   0.769   1.167    1   3.1646217        l,e99.0,e99.9,nproj,rcpsp
   0.00000000   0.00000000   0.00000000   0.00000000     rms, ekb1, ekb2, epsatm
    2   0.991   2.977    0   2.9359409        l,e99.0,e99.9,nproj,rcpsp
   0.00000000   0.00000000   0.00000000   0.00000000     rms, ekb1, ekb2, epsatm
    2.09488187080490    1.31996662950249   10.58981932283911   rchrg,fchrg,qchrg
 pspatm: epsatm=   10.64390676
         --- l  ekb(1:nproj) -->
             0    1.300581
             1    0.590411
 pspatm: atomic psp has been read  and splines computed

   1.06439068E+01                                ecore*ucvol(ha*bohr**3)
--------------------------------------------------------------------------------

P newkpt: treating      3 bands with npw=     658 for ikpt=   1
P newkpt: treating      3 bands with npw=     655 for ikpt=   2
P newkpt: treating      3 bands with npw=     646 for ikpt=   3
P newkpt: treating      3 bands with npw=     648 for ikpt=   4
P newkpt: treating      3 bands with npw=     650 for ikpt=   5
P newkpt: treating      3 bands with npw=     654 for ikpt=   6
P newkpt: treating      3 bands with npw=     654 for ikpt=   7
P newkpt: treating      3 bands with npw=     647 for ikpt=   8
P newkpt: treating      3 bands with npw=     651 for ikpt=   9
P newkpt: treating      3 bands with npw=     643 for ikpt=  10
P newkpt: treating      3 bands with npw=     652 for ikpt=  11
P newkpt: treating      3 bands with npw=     653 for ikpt=  12
P newkpt: treating      3 bands with npw=     645 for ikpt=  13
P newkpt: treating      3 bands with npw=     647 for ikpt=  14
P newkpt: treating      3 bands with npw=     647 for ikpt=  15
P newkpt: treating      3 bands with npw=     646 for ikpt=  16
P newkpt: treating      3 bands with npw=     646 for ikpt=  17
P newkpt: treating      3 bands with npw=     645 for ikpt=  18
P newkpt: treating      3 bands with npw=     650 for ikpt=  19
P newkpt: treating      3 bands with npw=     655 for ikpt=  20
P newkpt: treating      3 bands with npw=     655 for ikpt=  21
P newkpt: treating      3 bands with npw=     662 for ikpt=  22
P newkpt: treating      3 bands with npw=     654 for ikpt=  23
P newkpt: treating      3 bands with npw=     649 for ikpt=  24
P newkpt: treating      3 bands with npw=     645 for ikpt=  25
P newkpt: treating      3 bands with npw=     648 for ikpt=  26
P newkpt: treating      3 bands with npw=     656 for ikpt=  27
P newkpt: treating      3 bands with npw=     646 for ikpt=  28
P newkpt: treating      3 bands with npw=     652 for ikpt=  29
P newkpt: treating      3 bands with npw=     649 for ikpt=  30
P newkpt: treating      3 bands with npw=     650 for ikpt=  31
P newkpt: treating      3 bands with npw=     652 for ikpt=  32
P newkpt: treating      3 bands with npw=     646 for ikpt=  33
P newkpt: treating      3 bands with npw=     648 for ikpt=  34
P newkpt: treating      3 bands with npw=     650 for ikpt=  35
P newkpt: treating      3 bands with npw=     649 for ikpt=  36
P newkpt: treating      3 bands with npw=     646 for ikpt=  37
P newkpt: treating      3 bands with npw=     650 for ikpt=  38
P newkpt: treating      3 bands with npw=     649 for ikpt=  39
P newkpt: treating      3 bands with npw=     647 for ikpt=  40
P newkpt: treating      3 bands with npw=     649 for ikpt=  41
P newkpt: treating      3 bands with npw=     644 for ikpt=  42

 setup2: Arith. and geom. avg. npw (full set) are     649.569     649.559

================================================================================

 BROYDEN STEP NUMBER   0  ------------------------------------------------------

     iter   Etot(hartree)      deltaE(h)  residm     vres2    diffor    maxfor
 ETOT  1  -6.5073568856918    -6.507E+00 7.255E-04 9.121E+02 1.482E-01 1.482E-01
 ETOT  2  -6.8011276008891    -2.938E-01 1.775E-04 4.001E+00 1.474E-01 7.910E-04
 ETOT  3  -6.8020017459759    -8.741E-04 3.023E-05 1.155E+00 1.426E-05 8.053E-04
 ETOT  4  -6.8022805241926    -2.788E-04 4.607E-06 3.908E-01 1.228E-03 4.229E-04
 ETOT  5  -6.8022991719692    -1.865E-05 4.737E-07 2.627E-01 1.164E-04 3.065E-04
 ETOT  6  -6.8023089725868    -9.801E-06 2.176E-07 1.036E-01 1.486E-04 1.579E-04
 ETOT  7  -6.8023146776978    -5.705E-06 1.941E-07 3.911E-02 7.473E-05 8.316E-05
 ETOT  8  -6.8023194998721    -4.822E-06 1.783E-07 2.622E-03 6.303E-05 2.013E-05
 ETOT  9  -6.8023202394812    -7.396E-07 1.262E-07 6.021E-04 7.487E-06 1.265E-05
 ETOT 10  -6.8023204236328    -1.842E-07 9.015E-08 4.254E-04 1.171E-06 1.147E-05
 ETOT 11  -6.8023204346279    -1.100E-08 9.740E-08 3.275E-04 6.143E-08 1.154E-05
 ETOT 12  -6.8023204379153    -3.287E-09 6.173E-08 1.692E-04 6.452E-07 1.218E-05

 At SCF step   12, forces are converged :
  for the second time, max diff in force=  6.452E-07 < toldff=  1.000E-06

 Cartesian components of stress tensor (hartree/bohr^3)
  sigma(1 1)=  8.91312517E-04  sigma(3 2)=  0.00000000E+00
  sigma(2 2)=  8.91312517E-04  sigma(3 1)=  0.00000000E+00
  sigma(3 3)=  2.63491268E-03  sigma(2 1)=  0.00000000E+00

 Cartesian coordinates (bohr)
  0.00000000000000E+00  0.00000000000000E+00  3.98398000000000E+00
 Cartesian forces (hart/bohr); max,rms= 1.21812E-05 7.03280E-06 (free atoms)
 -0.00000000000000E+00 -0.00000000000000E+00 -1.21811684799472E-05

 At the end of Broyden step  0, total energy= -6.80232043791530E+00 Ha.


 At Broyd/MD step   0, gradients are converged :
  max grad (force/stress) = 1.2181E-05 < tolmxf= 5.0000E-05 ha/bohr (free atoms)

================================================================================

 ----iterations are completed or convergence reached----

 Mean square residual over all n,k,spin=   6.9596E-10; max=  6.1733E-08
   0.0417  0.0417  0.1250    1  1.88916E-10 kpt; spin; max resid(k); each band:
 3.04E-11 1.20E-10 1.89E-10
   0.1250  0.0417  0.1250    1  1.88984E-10 kpt; spin; max resid(k); each band:
 2.93E-11 1.20E-10 1.89E-10
   0.2083  0.0417  0.1250    1  1.40612E-10 kpt; spin; max resid(k); each band:
 2.70E-11 1.19E-10 1.41E-10
   0.2917  0.0417  0.1250    1  1.29499E-11 kpt; spin; max resid(k); each band:
 8.70E-12 1.29E-11 3.94E-12
   0.3750  0.0417  0.1250    1  1.18003E-11 kpt; spin; max resid(k); each band:
 6.06E-12 4.45E-12 1.18E-11
   0.4583  0.0417  0.1250    1  3.07565E-11 kpt; spin; max resid(k); each band:
 4.18E-12 2.75E-12 3.08E-11
   0.1250  0.1250  0.1250    1  1.89651E-10 kpt; spin; max resid(k); each band:
 2.84E-11 1.19E-10 1.90E-10
   0.2083  0.1250  0.1250    1  1.44700E-10 kpt; spin; max resid(k); each band:
 2.63E-11 1.19E-10 1.45E-10
   0.2917  0.1250  0.1250    1  1.28445E-11 kpt; spin; max resid(k); each band:
 7.87E-12 1.28E-11 3.84E-12
   0.3750  0.1250  0.1250    1  1.15387E-11 kpt; spin; max resid(k); each band:
 5.64E-12 4.26E-12 1.15E-11
   0.4583  0.1250  0.1250    1  3.00683E-11 kpt; spin; max resid(k); each band:
 3.99E-12 2.68E-12 3.01E-11
   0.2083  0.2083  0.1250    1  1.35429E-10 kpt; spin; max resid(k); each band:
 2.45E-11 1.18E-10 1.35E-10
   0.2917  0.2083  0.1250    1  1.26838E-11 kpt; spin; max resid(k); each band:
 6.57E-12 1.27E-11 3.63E-12
   0.3750  0.2083  0.1250    1  1.09403E-11 kpt; spin; max resid(k); each band:
 4.95E-12 3.93E-12 1.09E-11
   0.4583  0.2083  0.1250    1  2.92379E-11 kpt; spin; max resid(k); each band:
 3.68E-12 5.50E-12 2.92E-11
   0.2917  0.2917  0.1250    1  6.17327E-08 kpt; spin; max resid(k); each band:
 5.21E-12 1.80E-11 6.17E-08
   0.3750  0.2917  0.1250    1  1.28037E-11 kpt; spin; max resid(k); each band:
 4.21E-12 3.48E-12 1.28E-11
   0.4583  0.2917  0.1250    1  3.05725E-11 kpt; spin; max resid(k); each band:
 6.77E-12 4.68E-12 3.06E-11
   0.3750  0.3750  0.1250    1  6.33741E-12 kpt; spin; max resid(k); each band:
 6.01E-13 9.92E-13 6.34E-12
   0.4583  0.3750  0.1250    1  3.19187E-12 kpt; spin; max resid(k); each band:
 3.19E-12 2.04E-12 2.77E-12
   0.4583  0.4583  0.1250    1  2.13862E-12 kpt; spin; max resid(k); each band:
 2.14E-12 1.13E-12 1.66E-12
   0.0417  0.0417  0.3750    1  1.39276E-10 kpt; spin; max resid(k); each band:
 3.08E-11 1.17E-10 1.39E-10
   0.1250  0.0417  0.3750    1  1.38432E-10 kpt; spin; max resid(k); each band:
 2.99E-11 1.16E-10 1.38E-10
   0.2083  0.0417  0.3750    1  3.00979E-10 kpt; spin; max resid(k); each band:
 2.70E-11 1.14E-10 3.01E-10
   0.2917  0.0417  0.3750    1  1.39367E-11 kpt; spin; max resid(k); each band:
 9.59E-12 1.39E-11 3.71E-12
   0.3750  0.0417  0.3750    1  1.22910E-11 kpt; spin; max resid(k); each band:
 6.24E-12 4.31E-12 1.23E-11
   0.4583  0.0417  0.3750    1  2.86925E-11 kpt; spin; max resid(k); each band:
 4.08E-12 2.81E-12 2.87E-11
   0.1250  0.1250  0.3750    1  1.37796E-10 kpt; spin; max resid(k); each band:
 2.92E-11 1.16E-10 1.38E-10
   0.2083  0.1250  0.3750    1  4.16733E-10 kpt; spin; max resid(k); each band:
 2.64E-11 1.13E-10 4.17E-10
   0.2917  0.1250  0.3750    1  1.35802E-11 kpt; spin; max resid(k); each band:
 8.56E-12 1.36E-11 3.62E-12
   0.3750  0.1250  0.3750    1  1.18578E-11 kpt; spin; max resid(k); each band:
 5.69E-12 4.09E-12 1.19E-11
   0.4583  0.1250  0.3750    1  2.77480E-11 kpt; spin; max resid(k); each band:
 3.90E-12 2.73E-12 2.77E-11
   0.2083  0.2083  0.3750    1  2.78302E-10 kpt; spin; max resid(k); each band:
 2.44E-11 1.12E-10 2.78E-10
   0.2917  0.2083  0.3750    1  1.29791E-11 kpt; spin; max resid(k); each band:
 6.90E-12 1.30E-11 3.43E-12
   0.3750  0.2083  0.3750    1  1.09416E-11 kpt; spin; max resid(k); each band:
 4.87E-12 3.72E-12 1.09E-11
   0.4583  0.2083  0.3750    1  2.67091E-11 kpt; spin; max resid(k); each band:
 3.62E-12 5.62E-12 2.67E-11
   0.2917  0.2917  0.3750    1  2.11222E-08 kpt; spin; max resid(k); each band:
 5.18E-12 1.66E-11 2.11E-08
   0.3750  0.2917  0.3750    1  1.21345E-11 kpt; spin; max resid(k); each band:
 4.11E-12 3.28E-12 1.21E-11
   0.4583  0.2917  0.3750    1  2.79314E-11 kpt; spin; max resid(k); each band:
 3.36E-12 4.60E-12 2.79E-11
   0.3750  0.3750  0.3750    1  6.24149E-12 kpt; spin; max resid(k); each band:
 7.34E-13 8.42E-13 6.24E-12
   0.4583  0.3750  0.3750    1  3.13890E-12 kpt; spin; max resid(k); each band:
 3.14E-12 1.89E-12 2.75E-12
   0.4583  0.4583  0.3750    1  1.99256E-12 kpt; spin; max resid(k); each band:
 1.99E-12 9.74E-13 1.52E-12
 reduced coordinates (array xred) for    1 atoms
       0.000000000000      0.000000000000      0.179458558559
 rms dE/dt=  1.5613E-04; max dE/dt=  2.7042E-04; dE/dt below (all hartree)
    1       0.000000000000      0.000000000000      0.000270421940

 cartesian coordinates (angstrom) at end:
    1      0.00000000000000     0.00000000000000     2.10823141547839

 cartesian forces (hartree/bohr) at end:
    1     -0.00000000000000    -0.00000000000000     0.00000000000000
 frms,max,avg= 0.0000000E+00 0.0000000E+00   0.000E+00  0.000E+00 -1.218E-05 h/b

 cartesian forces (eV/Angstrom) at end:
    1     -0.00000000000000    -0.00000000000000     0.00000000000000
 frms,max,avg= 0.0000000E+00 0.0000000E+00   0.000E+00  0.000E+00 -6.264E-04 e/A
 length scales=  7.400000000000  7.400000000000 22.200000000000 bohr
              =  3.915911343566  3.915911343566 11.747734030698 angstroms
 prteigrs : about to open file t58o_EIG
 Fermi (or HOMO) energy (hartree) =  -0.07620   Average Vxc (hartree)=  -0.16260
 Eigenvalues (hartree) for nkpt=  42  k points:
 kpt#   1, nband=  3, wtk=  0.01389, kpt=  0.0417  0.0417  0.1250 (reduced coord)
  -0.25113  -0.12598  -0.05344
      occupation numbers for kpt#   1
   2.00000   2.00000   0.00244
 kpt#   2, nband=  3, wtk=  0.02778, kpt=  0.1250  0.0417  0.1250 (reduced coord)
  -0.24613  -0.12090  -0.04853
      occupation numbers for kpt#   2
   2.00000   2.00000   0.00043
 kpt#   3, nband=  3, wtk=  0.02778, kpt=  0.2083  0.0417  0.1250 (reduced coord)
  -0.23612  -0.11077  -0.03887
      occupation numbers for kpt#   3
   2.00000   2.00004   0.00000
 kpt#   4, nband=  3, wtk=  0.02778, kpt=  0.2917  0.0417  0.1250 (reduced coord)
  -0.22111  -0.09563  -0.07117
      occupation numbers for kpt#   4
   2.00000   2.04307   0.19549
 kpt#   5, nband=  3, wtk=  0.02778, kpt=  0.3750  0.0417  0.1250 (reduced coord)
  -0.20113  -0.11106  -0.07550
      occupation numbers for kpt#   5
   2.00000   2.00003   0.72557
 kpt#   6, nband=  3, wtk=  0.02778, kpt=  0.4583  0.0417  0.1250 (reduced coord)
  -0.17625  -0.14588  -0.05057
      occupation numbers for kpt#   6
   2.00000   2.00000   0.00097
 kpt#   7, nband=  3, wtk=  0.01389, kpt=  0.1250  0.1250  0.1250 (reduced coord)
  -0.24112  -0.11583  -0.04362
      occupation numbers for kpt#   7
   2.00000   2.00000   0.00004
 kpt#   8, nband=  3, wtk=  0.02778, kpt=  0.2083  0.1250  0.1250 (reduced coord)
  -0.23111  -0.10571  -0.03397
      occupation numbers for kpt#   8
   2.00000   2.00068   0.00000
 kpt#   9, nband=  3, wtk=  0.02778, kpt=  0.2917  0.1250  0.1250 (reduced coord)
  -0.21611  -0.09059  -0.06619
      occupation numbers for kpt#   9
   2.00000   2.12353   0.00810
 kpt#  10, nband=  3, wtk=  0.02778, kpt=  0.3750  0.1250  0.1250 (reduced coord)
  -0.19612  -0.10607  -0.07050
      occupation numbers for kpt#  10
   2.00000   2.00056   0.14745
 kpt#  11, nband=  3, wtk=  0.02778, kpt=  0.4583  0.1250  0.1250 (reduced coord)
  -0.17125  -0.14089  -0.04561
      occupation numbers for kpt#  11
   2.00000   2.00000   0.00011
 kpt#  12, nband=  3, wtk=  0.01389, kpt=  0.2083  0.2083  0.1250 (reduced coord)
  -0.22111  -0.09561  -0.02432
      occupation numbers for kpt#  12
   2.00000   2.04322   0.00000
 kpt#  13, nband=  3, wtk=  0.02778, kpt=  0.2917  0.2083  0.1250 (reduced coord)
  -0.20611  -0.08053  -0.05623
      occupation numbers for kpt#  13
   2.00000   1.58042   0.00441
 kpt#  14, nband=  3, wtk=  0.02778, kpt=  0.3750  0.2083  0.1250 (reduced coord)
  -0.18613  -0.09609  -0.06052
      occupation numbers for kpt#  14
   2.00000   2.03761   0.00417
 kpt#  15, nband=  3, wtk=  0.02778, kpt=  0.4583  0.2083  0.1250 (reduced coord)
  -0.16126  -0.13090  -0.03573
      occupation numbers for kpt#  15
   2.00000   2.00000   0.00000
 kpt#  16, nband=  3, wtk=  0.01389, kpt=  0.2917  0.2917  0.1250 (reduced coord)
  -0.19111  -0.06552  -0.04163
      occupation numbers for kpt#  16
   2.00000   0.00346   0.00001
 kpt#  17, nband=  3, wtk=  0.02778, kpt=  0.3750  0.2917  0.1250 (reduced coord)
  -0.17113  -0.08113  -0.04562
      occupation numbers for kpt#  17
   2.00000   1.66823   0.00011
 kpt#  18, nband=  3, wtk=  0.02778, kpt=  0.4583  0.2917  0.1250 (reduced coord)
  -0.14627  -0.11593  -0.02105
      occupation numbers for kpt#  18
   2.00000   2.00000   0.00000
 kpt#  19, nband=  3, wtk=  0.01389, kpt=  0.3750  0.3750  0.1250 (reduced coord)
  -0.15117  -0.06156  -0.06086
      occupation numbers for kpt#  19
   2.00000   0.00282   0.00378
 kpt#  20, nband=  3, wtk=  0.02778, kpt=  0.4583  0.3750  0.1250 (reduced coord)
  -0.12631  -0.09599  -0.03645
      occupation numbers for kpt#  20
   2.00000   2.03873   0.00000
 kpt#  21, nband=  3, wtk=  0.01389, kpt=  0.4583  0.4583  0.1250 (reduced coord)
  -0.10146  -0.07151  -0.07085
      occupation numbers for kpt#  21
   2.00522   0.22319   0.17132
 kpt#  22, nband=  3, wtk=  0.01389, kpt=  0.0417  0.0417  0.3750 (reduced coord)
  -0.25112  -0.12649  -0.04832
      occupation numbers for kpt#  22
   2.00000   2.00000   0.00039
 kpt#  23, nband=  3, wtk=  0.02778, kpt=  0.1250  0.0417  0.3750 (reduced coord)
  -0.24612  -0.12141  -0.04342
      occupation numbers for kpt#  23
   2.00000   2.00000   0.00003
 kpt#  24, nband=  3, wtk=  0.02778, kpt=  0.2083  0.0417  0.3750 (reduced coord)
  -0.23611  -0.11127  -0.03400
      occupation numbers for kpt#  24
   2.00000   2.00003   0.00000
 kpt#  25, nband=  3, wtk=  0.02778, kpt=  0.2917  0.0417  0.3750 (reduced coord)
  -0.22111  -0.09613  -0.07116
      occupation numbers for kpt#  25
   2.00000   2.03709   0.19484
 kpt#  26, nband=  3, wtk=  0.02778, kpt=  0.3750  0.0417  0.3750 (reduced coord)
  -0.20112  -0.11105  -0.07601
      occupation numbers for kpt#  26
   2.00000   2.00003   0.80932
 kpt#  27, nband=  3, wtk=  0.02778, kpt=  0.4583  0.0417  0.3750 (reduced coord)
  -0.17625  -0.14587  -0.05107
      occupation numbers for kpt#  27
   2.00000   2.00000   0.00116
 kpt#  28, nband=  3, wtk=  0.01389, kpt=  0.1250  0.1250  0.3750 (reduced coord)
  -0.24111  -0.11634  -0.03853
      occupation numbers for kpt#  28
   2.00000   2.00000   0.00000
 kpt#  29, nband=  3, wtk=  0.02778, kpt=  0.2083  0.1250  0.3750 (reduced coord)
  -0.23111  -0.10622  -0.02911
      occupation numbers for kpt#  29
   2.00000   2.00052   0.00000
 kpt#  30, nband=  3, wtk=  0.02778, kpt=  0.2917  0.1250  0.3750 (reduced coord)
  -0.21610  -0.09110  -0.06618
      occupation numbers for kpt#  30
   2.00000   2.11563   0.00803
 kpt#  31, nband=  3, wtk=  0.02778, kpt=  0.3750  0.1250  0.3750 (reduced coord)
  -0.19612  -0.10606  -0.07101
      occupation numbers for kpt#  31
   2.00000   2.00056   0.18309
 kpt#  32, nband=  3, wtk=  0.02778, kpt=  0.4583  0.1250  0.3750 (reduced coord)
  -0.17125  -0.14088  -0.04611
      occupation numbers for kpt#  32
   2.00000   2.00000   0.00014
 kpt#  33, nband=  3, wtk=  0.01389, kpt=  0.2083  0.2083  0.3750 (reduced coord)
  -0.22110  -0.09612  -0.01964
      occupation numbers for kpt#  33
   2.00000   2.03724   0.00000
 kpt#  34, nband=  3, wtk=  0.02778, kpt=  0.2917  0.2083  0.3750 (reduced coord)
  -0.20610  -0.08104  -0.05622
      occupation numbers for kpt#  34
   2.00000   1.65608   0.00440
 kpt#  35, nband=  3, wtk=  0.02778, kpt=  0.3750  0.2083  0.3750 (reduced coord)
  -0.18612  -0.09608  -0.06103
      occupation numbers for kpt#  35
   2.00000   2.03768   0.00356
 kpt#  36, nband=  3, wtk=  0.02778, kpt=  0.4583  0.2083  0.3750 (reduced coord)
  -0.16125  -0.13089  -0.03623
      occupation numbers for kpt#  36
   2.00000   2.00000   0.00000
 kpt#  37, nband=  3, wtk=  0.01389, kpt=  0.2917  0.2917  0.3750 (reduced coord)
  -0.19110  -0.06603  -0.04164
      occupation numbers for kpt#  37
   2.00000   0.00678   0.00001
 kpt#  38, nband=  3, wtk=  0.02778, kpt=  0.3750  0.2917  0.3750 (reduced coord)
  -0.17113  -0.08112  -0.04613
      occupation numbers for kpt#  38
   2.00000   1.66738   0.00014
 kpt#  39, nband=  3, wtk=  0.02778, kpt=  0.4583  0.2917  0.3750 (reduced coord)
  -0.14626  -0.11592  -0.02154
      occupation numbers for kpt#  39
   2.00000   2.00000   0.00000
 kpt#  40, nband=  3, wtk=  0.01389, kpt=  0.3750  0.3750  0.3750 (reduced coord)
  -0.15116  -0.06155  -0.06085
      occupation numbers for kpt#  40
   2.00000   0.00282   0.00378
 kpt#  41, nband=  3, wtk=  0.02778, kpt=  0.4583  0.3750  0.3750 (reduced coord)
  -0.12630  -0.09598  -0.03644
      occupation numbers for kpt#  41
   2.00000   2.03880   0.00000
 kpt#  42, nband=  3, wtk=  0.01389, kpt=  0.4583  0.4583  0.3750 (reduced coord)
  -0.10146  -0.07150  -0.07084
      occupation numbers for kpt#  42
   2.00523   0.22261   0.17091
 Total charge density [el/Bohr^3]
,     Maximum=    1.3729E-02  at reduced coord.    0.0000    0.0000    0.4167
,Next maximum=    1.3709E-02  at reduced coord.    0.0000    0.9375    0.4167
,     Minimum=    1.3372E-05  at reduced coord.    0.5000    0.5000    0.7917
,Next minimum=    1.3393E-05  at reduced coord.    0.5000    0.4375    0.7917

--------------------------------------------------------------------------------
 Components of total free energy (in Hartree) :

    Kinetic energy  =  4.56185273978971E-01
    Hartree energy  =  1.10840707272140E+00
    XC energy       = -7.16797145197124E+00
    Ewald energy    =  1.11142301731156E+00
    PspCore energy  =  8.75557449703910E-03
    Loc. psp. energy= -2.37249828023452E+00
    NL   psp  energy=  5.35912379116486E-02
    >>>>> Internal E= -6.80210755578514E+00

    -kT*entropy     = -2.12882130163102E-04
    >>>>>>>>> Etotal= -6.80232043791530E+00

 Other information on the energy :
    Total energy(eV)= -1.85100552574837E+02 ; Band energy (Ha)=  -5.8917762863E-01
--------------------------------------------------------------------------------

 Cartesian components of stress tensor (hartree/bohr^3)
  sigma(1 1)=  8.91312517E-04  sigma(3 2)=  0.00000000E+00
  sigma(2 2)=  8.91312517E-04  sigma(3 1)=  0.00000000E+00
  sigma(3 3)=  2.63491268E-03  sigma(2 1)=  0.00000000E+00

-Cartesian components of stress tensor (GPa)         [Pressure= -4.3323E+01 GPa]
- sigma(1 1)=  2.62233152E+01  sigma(3 2)=  0.00000000E+00
- sigma(2 2)=  2.62233152E+01  sigma(3 1)=  0.00000000E+00
- sigma(3 3)=  7.75217945E+01  sigma(2 1)=  0.00000000E+00

== END DATASET(S) ==============================================================
================================================================================
  
 -outvars: echo values of variables after computation  --------
     acell    7.4000000000E+00  7.4000000000E+00  2.2200000000E+01 Bohr
       amu    2.29897680E+01
    diemac    7.00000000E+00
    diemix    7.00000000E-01
      ecut    5.00000000E+00 Hartree
    etotal   -6.8023204379E+00
     fcart   -0.0000000000E+00 -0.0000000000E+00 -1.2181168480E-05
    ionmov         2
      iscf         3
  jellslab         1
       kpt    4.16666667E-02  4.16666667E-02  1.25000000E-01
              1.25000000E-01  4.16666667E-02  1.25000000E-01
              2.08333333E-01  4.16666667E-02  1.25000000E-01
              2.91666667E-01  4.16666667E-02  1.25000000E-01
              3.75000000E-01  4.16666667E-02  1.25000000E-01
              4.58333333E-01  4.16666667E-02  1.25000000E-01
              1.25000000E-01  1.25000000E-01  1.25000000E-01
              2.08333333E-01  1.25000000E-01  1.25000000E-01
              2.91666667E-01  1.25000000E-01  1.25000000E-01
              3.75000000E-01  1.25000000E-01  1.25000000E-01
              4.58333333E-01  1.25000000E-01  1.25000000E-01
              2.08333333E-01  2.08333333E-01  1.25000000E-01
              2.91666667E-01  2.08333333E-01  1.25000000E-01
              3.75000000E-01  2.08333333E-01  1.25000000E-01
              4.58333333E-01  2.08333333E-01  1.25000000E-01
              2.91666667E-01  2.91666667E-01  1.25000000E-01
              3.75000000E-01  2.91666667E-01  1.25000000E-01
              4.58333333E-01  2.91666667E-01  1.25000000E-01
              3.75000000E-01  3.75000000E-01  1.25000000E-01
              4.58333333E-01  3.75000000E-01  1.25000000E-01
              4.58333333E-01  4.58333333E-01  1.25000000E-01
              4.16666667E-02  4.16666667E-02  3.75000000E-01
              1.25000000E-01  4.16666667E-02  3.75000000E-01
              2.08333333E-01  4.16666667E-02  3.75000000E-01
              2.91666667E-01  4.16666667E-02  3.75000000E-01
              3.75000000E-01  4.16666667E-02  3.75000000E-01
              4.58333333E-01  4.16666667E-02  3.75000000E-01
              1.25000000E-01  1.25000000E-01  3.75000000E-01
              2.08333333E-01  1.25000000E-01  3.75000000E-01
              2.91666667E-01  1.25000000E-01  3.75000000E-01
              3.75000000E-01  1.25000000E-01  3.75000000E-01
              4.58333333E-01  1.25000000E-01  3.75000000E-01
              2.08333333E-01  2.08333333E-01  3.75000000E-01
              2.91666667E-01  2.08333333E-01  3.75000000E-01
              3.75000000E-01  2.08333333E-01  3.75000000E-01
              4.58333333E-01  2.08333333E-01  3.75000000E-01
              2.91666667E-01  2.91666667E-01  3.75000000E-01
              3.75000000E-01  2.91666667E-01  3.75000000E-01
              4.58333333E-01  2.91666667E-01  3.75000000E-01
              3.75000000E-01  3.75000000E-01  3.75000000E-01
              4.58333333E-01  3.75000000E-01  3.75000000E-01
              4.58333333E-01  4.58333333E-01  3.75000000E-01
   kptrlen    8.88000000E+01
    kptopt         1
  kptrlatt   12  0  0   0 12  0   0  0  4
P    mkmem        42
     natom         1
     nband         3
     ngfft        16      16      48
      nkpt        42
      nsym         8
     ntime         5
    ntypat         1
       occ    2.000000  2.000000  0.002435
              2.000000  2.000000  0.000429
              2.000000  2.000035  0.000002
              2.000000  2.043068  0.195487
              2.000000  2.000029  0.725571
              2.000000  2.000000  0.000966
              2.000000  2.000001  0.000038
              2.000000  2.000677  0.000000
              2.000000  2.123528  0.008101
              2.000000  2.000559  0.147452
              2.000000  2.000000  0.000109
              2.000000  2.043225  0.000000
              2.000000  1.580423  0.004405
              2.000000  2.037609  0.004171
              2.000000  2.000000  0.000000
              2.000000  0.003458  0.000012
              2.000000  1.668233  0.000110
              2.000000  2.000001  0.000000
              2.000000  0.002815  0.003777
              2.000000  2.038733  0.000000
              2.005217  0.223186  0.171325
              2.000000  2.000000  0.000391
              2.000000  2.000000  0.000034
              2.000000  2.000025  0.000000
              2.000000  2.037094  0.194845
              2.000000  2.000029  0.809324
              2.000000  2.000000  0.001160
              2.000000  2.000001  0.000002
              2.000000  2.000516  0.000000
              2.000000  2.115635  0.008026
              2.000000  2.000560  0.183095
              2.000000  2.000000  0.000141
              2.000000  2.037240  0.000000
              2.000000  1.656084  0.004400
              2.000000  2.037676  0.003561
              2.000000  2.000000  0.000000
              2.000000  0.006784  0.000012
              2.000000  1.667381  0.000142
              2.000000  2.000001  0.000000
              2.000000  0.002825  0.003784
              2.000000  2.038804  0.000000
              2.005231  0.222613  0.170911
    occopt         4
    prtden         0
     prtwf         0
    shiftk    5.00000000E-01  5.00000000E-01  5.00000000E-01
 slabwsrad    2.56000000E+00
  slabzbeg    7.40000000E+00
  slabzend    1.11000000E+01
   spgroup        99
    strten    8.9131251738E-04  8.9131251738E-04  2.6349126825E-03
              0.0000000000E+00  0.0000000000E+00  0.0000000000E+00
    symrel    1  0  0   0  1  0   0  0  1       1  0  0   0 -1  0   0  0  1
             -1  0  0   0 -1  0   0  0  1      -1  0  0   0  1  0   0  0  1
              0  1  0   1  0  0   0  0  1       0  1  0  -1  0  0   0  0  1
              0 -1  0  -1  0  0   0  0  1       0 -1  0   1  0  0   0  0  1
    toldff    1.00000000E-06
    tsmear    1.00000000E-02 Hartree
     typat    1
       wtk      0.01389    0.02778    0.02778    0.02778    0.02778    0.02778
                0.01389    0.02778    0.02778    0.02778    0.02778    0.01389
                0.02778    0.02778    0.02778    0.01389    0.02778    0.02778
                0.01389    0.02778    0.01389    0.01389    0.02778    0.02778
                0.02778    0.02778    0.02778    0.01389    0.02778    0.02778
                0.02778    0.02778    0.01389    0.02778    0.02778    0.02778
                0.01389    0.02778    0.02778    0.01389    0.02778    0.01389
    xangst    0.0000000000E+00  0.0000000000E+00  2.1082314155E+00
     xcart    0.0000000000E+00  0.0000000000E+00  3.9839800000E+00
      xred    0.0000000000E+00  0.0000000000E+00  1.7945855856E-01
     znucl     11.00000

================================================================================

- Total cpu        time (s,m,h):          8.5        0.14      0.002
- Total wall clock time (s,m,h):          8.5        0.14      0.002

- For major independent code sections, cpu and wall times (sec),
- as well as % of the total time and number of calls 

- routine                 cpu     %       wall     %      number of calls 
-                                                          (-1=no count)
- fourwf(pot)            4.869  57.2      4.873  57.2           8527
- fourwf(den)            0.477   5.6      0.478   5.6           1447
- vtorho(4)-mkrho-       0.359   4.2      0.358   4.2             24
- timing timab           0.343   4.0      0.344   4.0             11
- nonlop(apply)          0.307   3.6      0.315   3.7           8527
- projbd                 0.275   3.2      0.279   3.3          13526
- status                 0.257   3.0      0.239   2.8           8789
- pspini                 0.241   2.8      0.241   2.8              1
- getghc-other           0.177   2.1      0.163   1.9             -1
- vtowfk(ssdiag)         0.152   1.8      0.147   1.7             -1
- invars2                0.107   1.3      0.106   1.2              1
- vtorho-kpt loop        0.106   1.2      0.108   1.3             12
- nonlop(forces)         0.066   0.8      0.065   0.8           1512
- vtowfk(contrib)        0.044   0.5      0.037   0.4            504
- 56   others            0.272   3.2      0.266   3.1

- subtotal               8.052  94.6      8.019  94.2

================================================================================

 Calculation completed.
.Delivered    6 WARNINGs and   0 COMMENTs to log file.
+Overall time at end (sec) : cpu=          8.5  wall=          8.5
