
.Version 5.6.3  of ABINIT 
.(sequential version, prepared for a x86_64_linux_gcc4.3 computer) 

.Copyright (C) 1998-2008 ABINIT group . 
 ABINIT comes with ABSOLUTELY NO WARRANTY.
 It is free software, and you are welcome to redistribute it
 under certain conditions (GNU General Public License,
 see ~abinit/COPYING or http://www.gnu.org/copyleft/gpl.txt).

 ABINIT is a project of the Universite Catholique de Louvain,
 Corning Inc. and other collaborators, see ~abinit/doc/developers/contributors.txt .
 Please read ~abinit/doc/users/acknowledgments.html for suggested
 acknowledgments of the ABINIT effort.
 For more information, see http://www.abinit.org .

.Starting date : Fri  7 Nov 2008.
  
- input  file    -> /home/gonze/ABINIT/ABINITv5.6.3/test_gcc43/5.6.3-private/tests/etsf_io/Input/t06.in
- output file    -> t06.out
- root for input  files -> t06i
- root for output files -> t06o


 Symmetries : space group P1 (#  1); Bravais aP (primitive triclinic)
================================================================================
 Values of the parameters that define the memory need for DATASET  1 (WVL).
  wvl_hgrid =  0.700   nwfshist =      8 wvl_crmult =  4.500 wvl_frmult =  8.000
  tl_radius =  0.000  tl_nprccg =     30 wvl_cpmult =  8.000 wvl_fpmult =  8.000
      natom =      2     ntypat =      2    nstates =      5     nsppol =      1
================================================================================
================================================================================

 -outvars: echo values of preprocessed input variables --------
 accesswff         3
     acell    2.5000000000E+01  2.0000000000E+01  2.0000000000E+01 Bohr
       amu    1.20110000E+01  1.59994000E+01
      ecut    5.00000000E+00 Hartree
  icoulomb         1
      iscf         2
    istwfk      1
   kptrlen    2.00000000E+04
    kptopt         1
  kptrlatt    1  0  0   0  1  0   0  0  1
P    mkmem         1
     natom         2
     nband         5
     ngfft        54      45      45
      nkpt         1
 nscforder        14
     nstep         4
      nsym         1
    ntypat         2
  nwfshist         8
       occ    2.000000  2.000000  2.000000  2.000000  2.000000
 optforces         0
 optstress         0
    prtden         0
   spgroup         1
    tolwfr    1.00000000E-04
     typat    1  2
    usewvl         1
 wvl_crmul    4.50000000E+00
 wvl_frmul    8.00000000E+00
 wvl_cpmul    8.00000000E+00
 wvl_fpmul    8.00000000E+00
 wvl_hgrid    7.00000000E-01
 wvl_nprcc        15
    xangst    2.1167088344E+00  1.3229430215E+00  1.3229430215E+00
              3.1750632515E+00  1.3229430215E+00  1.3229430215E+00
     xcart    4.0000000000E+00  2.5000000000E+00  2.5000000000E+00
              6.0000000000E+00  2.5000000000E+00  2.5000000000E+00
      xred    1.6000000000E-01  1.2500000000E-01  1.2500000000E-01
              2.4000000000E-01  1.2500000000E-01  1.2500000000E-01
     znucl      6.00000    8.00000

================================================================================

 chkinp: Checking input parameters for consistency.

================================================================================
== DATASET  1 ==================================================================

 Real(R)+Recip(G) space primitive vectors, cartesian coordinates (Bohr,Bohr^-1):
 R(1)= 25.0000000  0.0000000  0.0000000  G(1)=  0.0400000  0.0000000  0.0000000
 R(2)=  0.0000000 20.0000000  0.0000000  G(2)=  0.0000000  0.0500000  0.0000000
 R(3)=  0.0000000  0.0000000 20.0000000  G(3)=  0.0000000  0.0000000  0.0500000
 Unit cell volume ucvol=  1.0000000E+04 bohr^3
 Angles (23,13,12)=  9.00000000E+01  9.00000000E+01  9.00000000E+01 degrees

 getcut: wavevector=  0.0000  0.0000  0.0000  ngfft=  54  45  45
         ecut(hartree)=      5.000   => boxcut(ratio)=   2.14587

--- Pseudopotential description ------------------------------------------------
- pspini: atom type   1  psp file is /home/gonze/ABINIT/ABINITv5.6.3/test_gcc43/5.6.3-private/tests/Psps_for_tests/06c.pspgth
- pspatm: opening atomic psp file    /home/gonze/ABINIT/ABINITv5.6.3/test_gcc43/5.6.3-private/tests/Psps_for_tests/06c.pspgth
   C SG LDA PSP
   6.00000   4.00000    960509                znucl, zion, pspdat
    2    1    0    0      2001   0.00000      pspcod,pspxc,lmax,lloc,mmax,r2well
 rloc=   0.3464730
  cc1=  -8.5753285; cc2=   1.2341279; cc3=   0.0000000; cc4=   0.0000000
  rrs=   0.3045228; h1s=   9.5341929; h2s=   0.0000000
  rrp=   0.0000000; h1p=   0.0000000
  radii_cf(1)=   1.4823130; radii_cf(2)=   0.2500000; rad_cov=   1.4600000
-  Local part computed in real space.
  | dr spline step is :    0.0125831
  | r >   37.7491722 is set to 0.
  | last non-nul potential value is :   -0.1059626

 pspatm : COMMENT -
  the projectors are not normalized,
  so that the KB energies are not consistent with
  definition in PRB44, 8503 (1991).
  However, this does not influence the results obtained hereafter.
 pspatm: epsatm=   -0.17502530
         --- l  ekb(1:nproj) -->
             0    0.954439
 pspatm: atomic psp has been read  and splines computed

- pspini: atom type   2  psp file is /home/gonze/ABINIT/ABINITv5.6.3/test_gcc43/5.6.3-private/tests/Psps_for_tests/08o.pspgth
- pspatm: opening atomic psp file    /home/gonze/ABINIT/ABINITv5.6.3/test_gcc43/5.6.3-private/tests/Psps_for_tests/08o.pspgth
   O SG LDA PSP
   8.00000   6.00000    960531                znucl, zion, pspdat
    2    1    0    0      2001   0.00000      pspcod,pspxc,lmax,lloc,mmax,r2well
 rloc=   0.2477535
  cc1= -16.4822284; cc2=   2.3701353; cc3=   0.0000000; cc4=   0.0000000
  rrs=   0.2222028; h1s=  18.1996387; h2s=   0.0000000
  rrp=   0.0000000; h1p=   0.0000000
  radii_cf(1)=   1.1453720; radii_cf(2)=   0.2400000; rad_cov=   1.3800000
-  Local part computed in real space.
  | dr spline step is :    0.0125831
  | r >   37.7491722 is set to 0.
  | last non-nul potential value is :   -0.1589439

 pspatm : COMMENT -
  the projectors are not normalized,
  so that the KB energies are not consistent with
  definition in PRB44, 8503 (1991).
  However, this does not influence the results obtained hereafter.
 pspatm: epsatm=    0.06936534
         --- l  ekb(1:nproj) -->
             0    0.707809
 pspatm: atomic psp has been read  and splines computed

  -1.05659954E+00                                ecore*ucvol(ha*bohr**3)
--------------------------------------------------------------------------------


 setup2: nwvl coarse and fine are    3640     160

================================================================================

     iter   Etot(hartree)      deltaE(h)  grdnorm    vres2
 ETOT  1  -21.017447291278    -2.102E+01 4.651E-01 4.611E+01
 ETOT  2  -21.336999069757    -3.196E-01 1.353E-01 2.976E+00
 ETOT  3  -21.360919594108    -2.392E-02 6.410E-02 9.625E-02
 ETOT  4  -21.365683529998    -4.764E-03 2.730E-02 7.734E-03

 scprqt:  WARNING -
  nstep=    4 was not enough SCF cycles to converge;
  maximum grdnorm=  2.730E-02 exceeds tolwfr=  1.000E-04

================================================================================

 ----iterations are completed or convergence reached----

 Mean square residual over all n,k,spin=   0.0000E+00; max=  0.0000E+00
   0.0000  0.0000  0.0000    1  0.00000E+00 kpt; spin; max resid(k); each band:
 0.00E+00 0.00E+00 0.00E+00 0.00E+00 0.00E+00
 reduced coordinates (array xred) for    2 atoms
       0.481813327068      0.500000000000      0.500000000000
       0.632189266917      0.500000000000      0.500000000000
 rms dE/dt=  0.0000E+00; max dE/dt=  0.0000E+00; dE/dt below (all hartree)
    1       0.000000000000      0.000000000000      0.000000000000
    2       0.000000000000      0.000000000000      0.000000000000

 cartesian coordinates (angstrom) at end:
    1      3.39102959867243     3.51902843712350     3.51902843712350
    2      4.44938401585243     3.51902843712350     3.51902843712350
 length scales= 13.300000000000 13.300000000000 13.300000000000 bohr
              =  7.038056874247  7.038056874247  7.038056874247 angstroms
 prteigrs : about to open file t06o_EIG
 Fermi (or HOMO) energy (hartree) =   0.00000   Average Vxc (hartree)=  -0.00853
 Eigenvalues (hartree) for nkpt=   1  k points:
 kpt#   1, nband=  5, wtk=  1.00000, kpt=  0.0000  0.0000  0.0000 (reduced coord)
  -1.15503  -0.52829  -0.46168  -0.46149  -0.31552
 Total charge density [el/Bohr^3]
,     Maximum=    1.0590E+00  at reduced coord.    0.5217    0.4783    0.4783
,Next maximum=    1.0331E+00  at reduced coord.    0.5362    0.4783    0.4783
,     Minimum=    1.0000E-20  at reduced coord.    0.0000    0.0000    0.0000
,Next minimum=    1.0000E-20  at reduced coord.    0.0145    0.0000    0.0000

--------------------------------------------------------------------------------
 Components of total free energy (in Hartree) :

    Kinetic energy  =  1.56779276953054E+01
    Hartree energy  =  2.90705591731390E+01
    XC energy       = -4.98504201236570E+00
    Ion-ion energy  =  1.20000000000000E+01
    PspCore energy  =  0.00000000000000E+00
    Loc. psp. energy= -8.14166227336272E+01
    NL   psp  energy=  1.75356952499258E+00
    XC pot. energy  = -6.53292680718740E+00
    >>>>>>>>> Etotal= -2.13666815453686E+01

 Other information on the energy :
    Total energy(eV)= -5.81416973345402E+02 ; Band energy (Ha)=   0.0000000000E+00
--------------------------------------------------------------------------------

== END DATASET(S) ==============================================================
================================================================================
  
 -outvars: echo values of variables after computation  --------
 accesswff         3
     acell    1.3300000000E+01  1.3300000000E+01  1.3300000000E+01 Bohr
       amu    1.20110000E+01  1.59994000E+01
      ecut    5.00000000E+00 Hartree
    etotal   -2.1366681545E+01
     fcart    9.9999999999E+99  9.9999999999E+99  9.9999999999E+99
              9.9999999999E+99  9.9999999999E+99  9.9999999999E+99
  icoulomb         1
      iscf         2
    istwfk      1
   kptrlen    2.00000000E+04
    kptopt         1
  kptrlatt    1  0  0   0  1  0   0  0  1
P    mkmem         1
     natom         2
     nband         5
     ngfft        54      45      45
      nkpt         1
 nscforder        14
     nstep         4
      nsym         1
    ntypat         2
  nwfshist         8
       occ    2.000000  2.000000  2.000000  2.000000  2.000000
 optforces         0
 optstress         0
    prtden         0
   spgroup         1
    strten    9.9999999999E+99  9.9999999999E+99  9.9999999999E+99
              9.9999999999E+99  9.9999999999E+99  9.9999999999E+99
    tolwfr    1.00000000E-04
     typat    1  2
    usewvl         1
 wvl_crmul    4.50000000E+00
 wvl_frmul    8.00000000E+00
 wvl_cpmul    8.00000000E+00
 wvl_fpmul    8.00000000E+00
 wvl_hgrid    7.00000000E-01
 wvl_nprcc        15
    xangst    3.3910295987E+00  3.5190284371E+00  3.5190284371E+00
              4.4493840159E+00  3.5190284371E+00  3.5190284371E+00
     xcart    6.4081172500E+00  6.6500000000E+00  6.6500000000E+00
              8.4081172500E+00  6.6500000000E+00  6.6500000000E+00
      xred    4.8181332707E-01  5.0000000000E-01  5.0000000000E-01
              6.3218926692E-01  5.0000000000E-01  5.0000000000E-01
     znucl      6.00000    8.00000

================================================================================

- Total cpu        time (s,m,h):          5.4        0.09      0.002
- Total wall clock time (s,m,h):          5.4        0.09      0.002

- For major independent code sections, cpu and wall times (sec),
- as well as % of the total time and number of calls 

- routine                 cpu     %       wall     %      number of calls 
-                                                          (-1=no count)
- inwffil                2.197  40.5      2.197  40.5              1
- timing timab           0.500   9.2      0.501   9.2             12
- invars2                0.108   2.0      0.109   2.0              1
- abinit(2)              0.032   0.6      0.032   0.6              1
- 66   others            0.004   0.1      0.006   0.1

- subtotal               2.841  52.4      2.845  52.5

================================================================================

 Calculation completed.
.Delivered    1 WARNINGs and   4 COMMENTs to log file.
+Overall time at end (sec) : cpu=          5.4  wall=          5.4
