 
             +---------------------------------------------------+
             |                                                   |
             |                   WANNIER90                       |
             |                                                   |
             +---------------------------------------------------+
             |                                                   |
             |        Welcome to the Maximally-Localized         |
             |        Generalized Wannier Functions code         |
             |            http://www.wannier.org                 |
             |                                                   |
             |  Authors:                                         |
             |        Arash A. Mostofi   (MIT)                   |
             |        Jonathan R. Yates  (LBNL and UC Berkeley)  |
             |                                                   |
             |                                                   |
             |  Please cite                                      |
             |                                                   |
             |  [ref] A. A. Mostofi, J. R. Yates,                |
             |        N. Marzari, I. Souza and D. Vanderbilt,    |
             |        http://www.wannier.org/                    |
             |                                                   |
             |  in any publications arising from the use of      |
             |  this code.                                       |
             |                                                   |
             |                                                   |
             |  Wannier90 is based on routines written by        |
             |  Nicola Marzari, Ivo Souza and David Vanderbilt.  |
             |  For the method please cite                       |
             |                                                   |
             |  [ref] "Maximally Localized Generalised Wannier   |
             |         Functions for Composite Energy Bands"     |
             |         N. Marzari and D. Vanderbilt              |
             |         Phys. Rev. B 56 12847 (1997)              |
             |                                                   |
             |  [ref] "Maximally Localized Wannier Functions     |
             |         for Entangled Energy Bands"               |
             |         I. Souza, N. Marzari and D. Vanderbilt    |
             |         Phys. Rev. B 65 035109 (2001)             |
             |                                                   |
             |                                                   |
             | Copyright (c) 1997-2006 J. Yates, A. Mostofi,     |
             |        N. Marzari, I. Souza, D. Vanderbilt        |
             |                                                   |
             |          Release: 1.0.2     1st Dec 2006          |
             |                                                   |
             | This program is free software; you can            |
             | redistribute it and/or modify it under the terms  |
             | of the GNU General Public License as published by |
             | the Free Software Foundation; either version 2 of |
             | the License, or (at your option) any later version|
             |                                                   |
             | This program is distributed in the hope that it   |
             | will be useful, but WITHOUT ANY WARRANTY; without |
             | even the implied warranty of MERCHANTABILITY or   |
             | FITNESS FOR A PARTICULAR PURPOSE. See the GNU     |
             | General Public License for more details.          |
             |                                                   |
             | You should have received a copy of the GNU General|
             | Public License along with this program; if not,   |
             | write to the Free Software Foundation, Inc.,      |
             | 675 Mass Ave, Cambridge, MA 02139, USA.           |
             |                                                   |
             +---------------------------------------------------+
             |    Execution started on 12Jun2007 at 16:00:52     |
             +---------------------------------------------------+

 Wannier90 is running in LIBRARY MODE

 Setting up k-point neighbours...

 Ignoring <mp_grid> in input file
 Ignoring <unit_cell_cart> in input file
 Ignoring <kpoints> in input file
 Ignoring <atoms_frac> in input file
 
                                    ------
                                    SYSTEM
                                    ------
 
                              Lattice Vectors (Ang)
                    a_1     0.000000   2.804639   2.804639
                    a_2     2.804639   0.000000   2.804639
                    a_3     2.804639   2.804639   0.000000
 
                   Unit Cell Volume:      44.12259  (Ang^3)
 
                        Reciprocal-Space Vectors (Ang^-1)
                    b_1    -1.120141   1.120141   1.120141
                    b_2     1.120141  -1.120141   1.120141
                    b_3     1.120141   1.120141  -1.120141
  
                         No atom positions specified
  
                                ------------
                                K-POINT GRID
                                ------------
  
             Grid size =  0 x  0 x  0      Total points =    8
  
  
 *---------------------------------- MAIN ------------------------------------*
 |  Number of Wannier Functions               :                 4             |
 |  Number of input Bloch states              :                 4             |
 |  Output verbosity (1=low, 5=high)          :                 1             |
 |  Length Unit                               :               Ang             |
 |  Post-processing setup (write *.nnkp)      :                 F             |
 *----------------------------------------------------------------------------*
 *------------------------------- WANNIERISE ---------------------------------*
 |  Total number of iterations                :                80             |
 |  Number of CG steps before reset           :                 5             |
 |  Trial step length for line search         :             2.000             |
 |  Iterations between writing output         :                 1             |
 |  Iterations between backing up to disk     :               100             |
 |  Write r^2_nm to file                      :                 F             |
 |  Use guiding centre to control phases      :                 F             |
 *----------------------------------------------------------------------------*
 Time to read parameters        0.001 (sec)

 *---------------------------------- K-MESH ----------------------------------*
 +----------------------------------------------------------------------------+
 |                    Distance to Nearest-Neighbour Shells                    |
 |                    ------------------------------------                    |
 |          Shell             Distance (Ang^-1)          Multiplicity         |
 |          -----             -----------------          ------------         |
 |             1                   0.970071                      8            |
 |             2                   1.120141                      6            |
 |             3                   1.584119                     12            |
 |             4                   1.857544                     24            |
 |             5                   1.940142                      8            |
 |             6                   2.240283                      6            |
 |             7                   2.441292                     24            |
 |             8                   2.504712                     24            |
 |             9                   2.743775                     24            |
 |            10                   2.910213                     32            |
 |            11                   3.168238                     12            |
 |            12                   3.313423                     48            |
 +----------------------------------------------------------------------------+
 | The b-vectors are chosen automatically                                     |
 | The following shells are used:   1                                         |
 +----------------------------------------------------------------------------+
 |                        Shell   # Nearest-Neighbours                        |
 |                        -----   --------------------                        |
 |                          1               8                                 |
 +----------------------------------------------------------------------------+
 | Completeness relation is fully satisfied [Eq. (B1), PRB 56, 12847 (1997)]  |
 +----------------------------------------------------------------------------+
 |                  b_k Vectors (Ang^-1) and Weights (Ang^2)                  |
 |                  ----------------------------------------                  |
 |            No.         b_k(x)      b_k(y)      b_k(z)        w_b           |
 |            ---        --------------------------------     --------        |
 |             1         0.560071    0.560071   -0.560071     0.398496        |
 |             2         0.560071   -0.560071    0.560071     0.398496        |
 |             3        -0.560071    0.560071    0.560071     0.398496        |
 |             4         0.560071    0.560071    0.560071     0.398496        |
 |             5        -0.560071   -0.560071    0.560071     0.398496        |
 |             6        -0.560071    0.560071   -0.560071     0.398496        |
 |             7         0.560071   -0.560071   -0.560071     0.398496        |
 |             8        -0.560071   -0.560071   -0.560071     0.398496        |
 +----------------------------------------------------------------------------+
 |                           b_k Directions (Ang^-1)                          |
 |                           -----------------------                          |
 |            No.           x           y           z                         |
 |            ---        --------------------------------                     |
 |             1         0.560071    0.560071   -0.560071                     |
 |             2         0.560071   -0.560071    0.560071                     |
 |             3        -0.560071    0.560071    0.560071                     |
 |             4         0.560071    0.560071    0.560071                     |
 +----------------------------------------------------------------------------+
  
 Time to write kmesh            0.022 (sec)

 Finished setting up k-point neighbours.

 Returning to pw2wannier90 at 16:00:52 

 Resuming Wannier90 at 16:00:52 

 Ignoring <mp_grid> in input file
 Ignoring <unit_cell_cart> in input file
 Ignoring <kpoints> in input file
 Ignoring <atoms_frac> in input file
 
                                    ------
                                    SYSTEM
                                    ------
 
                              Lattice Vectors (Ang)
                    a_1     0.000000   2.804639   2.804639
                    a_2     2.804639   0.000000   2.804639
                    a_3     2.804639   2.804639   0.000000
 
                   Unit Cell Volume:      44.12259  (Ang^3)
 
                        Reciprocal-Space Vectors (Ang^-1)
                    b_1    -1.120141   1.120141   1.120141
                    b_2     1.120141  -1.120141   1.120141
                    b_3     1.120141   1.120141  -1.120141
  
                         No atom positions specified
  
                                ------------
                                K-POINT GRID
                                ------------
  
             Grid size =  0 x  0 x  0      Total points =    8
  
  
 *---------------------------------- MAIN ------------------------------------*
 |  Number of Wannier Functions               :                 4             |
 |  Number of input Bloch states              :                 4             |
 |  Output verbosity (1=low, 5=high)          :                 1             |
 |  Length Unit                               :               Ang             |
 |  Post-processing setup (write *.nnkp)      :                 F             |
 *----------------------------------------------------------------------------*
 *------------------------------- WANNIERISE ---------------------------------*
 |  Total number of iterations                :                80             |
 |  Number of CG steps before reset           :                 5             |
 |  Trial step length for line search         :             2.000             |
 |  Iterations between writing output         :                 1             |
 |  Iterations between backing up to disk     :               100             |
 |  Write r^2_nm to file                      :                 F             |
 |  Use guiding centre to control phases      :                 F             |
 *----------------------------------------------------------------------------*
 Time to read parameters        0.001 (sec)

 *---------------------------------- K-MESH ----------------------------------*
 +----------------------------------------------------------------------------+
 |                    Distance to Nearest-Neighbour Shells                    |
 |                    ------------------------------------                    |
 |          Shell             Distance (Ang^-1)          Multiplicity         |
 |          -----             -----------------          ------------         |
 |             1                   0.970071                      8            |
 |             2                   1.120141                      6            |
 |             3                   1.584119                     12            |
 |             4                   1.857544                     24            |
 |             5                   1.940142                      8            |
 |             6                   2.240283                      6            |
 |             7                   2.441292                     24            |
 |             8                   2.504712                     24            |
 |             9                   2.743775                     24            |
 |            10                   2.910213                     32            |
 |            11                   3.168238                     12            |
 |            12                   3.313423                     48            |
 +----------------------------------------------------------------------------+
 | The b-vectors are chosen automatically                                     |
 | The following shells are used:   1                                         |
 +----------------------------------------------------------------------------+
 |                        Shell   # Nearest-Neighbours                        |
 |                        -----   --------------------                        |
 |                          1               8                                 |
 +----------------------------------------------------------------------------+
 | Completeness relation is fully satisfied [Eq. (B1), PRB 56, 12847 (1997)]  |
 +----------------------------------------------------------------------------+
 |                  b_k Vectors (Ang^-1) and Weights (Ang^2)                  |
 |                  ----------------------------------------                  |
 |            No.         b_k(x)      b_k(y)      b_k(z)        w_b           |
 |            ---        --------------------------------     --------        |
 |             1         0.560071    0.560071   -0.560071     0.398496        |
 |             2         0.560071   -0.560071    0.560071     0.398496        |
 |             3        -0.560071    0.560071    0.560071     0.398496        |
 |             4         0.560071    0.560071    0.560071     0.398496        |
 |             5        -0.560071   -0.560071    0.560071     0.398496        |
 |             6        -0.560071    0.560071   -0.560071     0.398496        |
 |             7         0.560071   -0.560071   -0.560071     0.398496        |
 |             8        -0.560071   -0.560071   -0.560071     0.398496        |
 +----------------------------------------------------------------------------+
 |                           b_k Directions (Ang^-1)                          |
 |                           -----------------------                          |
 |            No.           x           y           z                         |
 |            ---        --------------------------------                     |
 |             1         0.560071    0.560071   -0.560071                     |
 |             2         0.560071   -0.560071    0.560071                     |
 |             3        -0.560071    0.560071    0.560071                     |
 |             4         0.560071    0.560071    0.560071                     |
 +----------------------------------------------------------------------------+
  

 Writing checkpoint file wannier90.chk... done

 
 *------------------------------- WANNIERISE ---------------------------------*
 +--------------------------------------------------------------------+<-- CONV
 | Iter  Delta Spread     RMS Gradient      Spread (Ang^2)      Time  |<-- CONV
 +--------------------------------------------------------------------+<-- CONV
 
 ------------------------------------------------------------------------------
 Initial State
  WF centre and spread    1  (  0.787716,  0.236371,  0.872015 )     9.01662169
  WF centre and spread    2  ( -0.731951, -0.387769, -0.517333 )    10.66531493
  WF centre and spread    3  (  0.584563, -0.024989, -0.124148 )    11.94983732
  WF centre and spread    4  (  0.899882,  0.211915, -0.325313 )    12.95463270
  Sum of centres and spreads (  1.540209,  0.035528, -0.094780 )    44.58640663
 
      0     0.446E+02     0.0000000000       44.5864066312       0.20  <-- CONV
        O_D=     34.3239467 O_OD=      6.3558701 O_TOT=     44.5864066 <-- SPRD
 ------------------------------------------------------------------------------
 Cycle:      1
  WF centre and spread    1  (  0.607994,  0.261166,  0.881790 )     7.99374543
  WF centre and spread    2  ( -0.838859, -0.321447, -0.212865 )     9.69293059
  WF centre and spread    3  (  0.691342, -0.077068, -0.041919 )     9.41372276
  WF centre and spread    4  (  0.655047,  0.186974, -0.160345 )    11.34229132
  Sum of centres and spreads (  1.115525,  0.049625,  0.466660 )    38.44269010
 
      1    -0.614E+01    31.7396203819       38.4426900985       0.20  <-- CONV
        O_D=     28.2014805 O_OD=      6.3346197 O_TOT=     38.4426901 <-- SPRD
 Delta: O_D= -0.6122466E+01 O_OD= -0.2125042E-01 O_TOT= -0.6143717E+01 <-- DLTA
 ------------------------------------------------------------------------------
 Cycle:      2
  WF centre and spread    1  (  0.571945,  0.230415,  0.851323 )     7.15758581
  WF centre and spread    2  ( -0.909370, -0.288888, -0.180827 )     9.10748907
  WF centre and spread    3  (  0.708055, -0.093419, -0.155808 )     8.18348058
  WF centre and spread    4  (  0.647212,  0.185438, -0.173091 )     9.57586818
  Sum of centres and spreads (  1.017843,  0.033547,  0.341597 )    34.02442363
 
      2    -0.442E+01    12.2236898046       34.0244236339       0.20  <-- CONV
        O_D=     23.8367817 O_OD=      6.2810521 O_TOT=     34.0244236 <-- SPRD
 Delta: O_D= -0.4364699E+01 O_OD= -0.5356758E-01 O_TOT= -0.4418266E+01 <-- DLTA
 ------------------------------------------------------------------------------
 Cycle:      3
  WF centre and spread    1  (  0.569937,  0.380022,  0.798660 )     5.18198483
  WF centre and spread    2  ( -0.442895, -0.701698,  0.099774 )     9.65141885
  WF centre and spread    3  (  0.534595, -0.294611, -0.416234 )     6.18286721
  WF centre and spread    4  (  0.538467,  0.079259, -0.247775 )     6.28632782
  Sum of centres and spreads (  1.200104, -0.537028,  0.234424 )    27.30259870
 
      3    -0.672E+01     8.3973532250       27.3025987029       0.20  <-- CONV
        O_D=     17.3211996 O_OD=      6.0748093 O_TOT=     27.3025987 <-- SPRD
 Delta: O_D= -0.6515582E+01 O_OD= -0.2062429E+00 O_TOT= -0.6721825E+01 <-- DLTA
 ------------------------------------------------------------------------------
 Cycle:      4
  WF centre and spread    1  (  0.550892,  0.480812,  0.840335 )     4.32602569
  WF centre and spread    2  ( -0.562895, -0.758434,  0.153290 )     7.15287034
  WF centre and spread    3  (  0.558825, -0.372438, -0.497187 )     5.69139117
  WF centre and spread    4  (  0.465528, -0.011093, -0.150962 )     6.05121301
  Sum of centres and spreads (  1.012350, -0.661153,  0.345477 )    23.22150021
 
      4    -0.408E+01     7.5173045045       23.2215002116       0.20  <-- CONV
        O_D=     13.2639970 O_OD=      6.0509134 O_TOT=     23.2215002 <-- SPRD
 Delta: O_D= -0.4057203E+01 O_OD= -0.2389589E-01 O_TOT= -0.4081098E+01 <-- DLTA
 ------------------------------------------------------------------------------
 Cycle:      5
  WF centre and spread    1  (  0.488192,  0.851320,  0.721889 )     4.01548431
  WF centre and spread    2  ( -0.826919, -0.690943,  0.542274 )     5.15830748
  WF centre and spread    3  (  0.578397, -0.648085, -0.563178 )     4.51962108
  WF centre and spread    4  (  0.571486,  0.175908, -0.095007 )     5.75551964
  Sum of centres and spreads (  0.811155, -0.311800,  0.605977 )    19.44893251
 
      5    -0.377E+01     5.4751448461       19.4489325081       0.20  <-- CONV
        O_D=      9.3561182 O_OD=      6.1862244 O_TOT=     19.4489325 <-- SPRD
 Delta: O_D= -0.3907879E+01 O_OD=  0.1353111E+00 O_TOT= -0.3772568E+01 <-- DLTA
 ------------------------------------------------------------------------------
 Cycle:      6
  WF centre and spread    1  (  0.627689,  0.649961,  0.791910 )     3.93414216
  WF centre and spread    2  ( -0.263253, -0.386755,  0.100108 )     5.27534122
  WF centre and spread    3  (  0.653997, -0.480901, -0.745465 )     4.31351714
  WF centre and spread    4  (  0.468648,  0.521608,  0.135789 )     4.19965072
  Sum of centres and spreads (  1.487082,  0.303913,  0.282342 )    17.72265125
 
      6    -0.173E+01    10.2148105757       17.7226512468       0.20  <-- CONV
        O_D=      7.7440598 O_OD=      6.0720016 O_TOT=     17.7226512 <-- SPRD
 Delta: O_D= -0.1612058E+01 O_OD= -0.1142229E+00 O_TOT= -0.1726281E+01 <-- DLTA
 ------------------------------------------------------------------------------
 Cycle:      7
  WF centre and spread    1  (  0.640960,  0.639295,  0.761925 )     3.38349376
  WF centre and spread    2  ( -0.158951, -0.444852,  0.051785 )     5.03478049
  WF centre and spread    3  (  0.508671, -0.461650, -0.734665 )     3.31041525
  WF centre and spread    4  (  0.527670,  0.504367,  0.162990 )     3.75937734
  Sum of centres and spreads (  1.518349,  0.237159,  0.242034 )    15.48806684
 
      7    -0.223E+01     4.9286415240       15.4880668386       0.21  <-- CONV
        O_D=      5.6912643 O_OD=      5.8902126 O_TOT=     15.4880668 <-- SPRD
 Delta: O_D= -0.2052795E+01 O_OD= -0.1817890E+00 O_TOT= -0.2234584E+01 <-- DLTA
 ------------------------------------------------------------------------------
 Cycle:      8
  WF centre and spread    1  (  0.753328,  0.716180,  0.804827 )     2.85342393
  WF centre and spread    2  ( -0.116577, -0.538933,  0.221533 )     3.55912508
  WF centre and spread    3  (  0.430626, -0.366457, -0.832154 )     2.93782539
  WF centre and spread    4  (  0.646008,  0.585083,  0.169822 )     3.95817387
  Sum of centres and spreads (  1.713385,  0.395874,  0.364029 )    13.30854827
 
      8    -0.218E+01     3.2113736129       13.3085482680       0.21  <-- CONV
        O_D=      3.7545846 O_OD=      5.6473738 O_TOT=     13.3085483 <-- SPRD
 Delta: O_D= -0.1936680E+01 O_OD= -0.2428389E+00 O_TOT= -0.2179519E+01 <-- DLTA
 ------------------------------------------------------------------------------
 Cycle:      9
  WF centre and spread    1  (  0.788920,  0.763094,  0.823157 )     2.85132157
  WF centre and spread    2  ( -0.119580, -0.582145,  0.231123 )     3.30706141
  WF centre and spread    3  (  0.414830, -0.353085, -0.837287 )     2.90371238
  WF centre and spread    4  (  0.775580,  0.711226,  0.293395 )     4.07148386
  Sum of centres and spreads (  1.859750,  0.539090,  0.510388 )    13.13357921
 
      9    -0.175E+00     2.5982721293       13.1335792132       0.21  <-- CONV
        O_D=      3.6547767 O_OD=      5.5722126 O_TOT=     13.1335792 <-- SPRD
 Delta: O_D= -0.9980793E-01 O_OD= -0.7516113E-01 O_TOT= -0.1749691E+00 <-- DLTA
 ------------------------------------------------------------------------------
 Cycle:     10
  WF centre and spread    1  (  0.816980,  0.814878,  0.839965 )     2.88009546
  WF centre and spread    2  ( -0.133707, -0.621205,  0.244971 )     3.12954250
  WF centre and spread    3  (  0.406589, -0.356010, -0.828703 )     2.87573460
  WF centre and spread    4  (  0.772932,  0.712501,  0.295606 )     3.78312664
  Sum of centres and spreads (  1.862794,  0.550165,  0.551839 )    12.66849920
 
     10    -0.465E+00     3.3426145688       12.6684992032       0.21  <-- CONV
        O_D=      3.2332906 O_OD=      5.5286188 O_TOT=     12.6684992 <-- SPRD
 Delta: O_D= -0.4214862E+00 O_OD= -0.4359385E-01 O_TOT= -0.4650800E+00 <-- DLTA
 ------------------------------------------------------------------------------
 Cycle:     11
  WF centre and spread    1  (  0.680578,  0.715240,  0.696679 )     3.24540648
  WF centre and spread    2  ( -0.163891, -0.673106,  0.271182 )     2.95902435
  WF centre and spread    3  (  0.416147, -0.426284, -0.772466 )     2.72923020
  WF centre and spread    4  (  0.606433,  0.565453,  0.142319 )     4.03708470
  Sum of centres and spreads (  1.539268,  0.181303,  0.337714 )    12.97074573
 
     11     0.302E+00     4.3464061513       12.9707457312       0.21  <-- CONV
        O_D=      3.5540278 O_OD=      5.5101280 O_TOT=     12.9707457 <-- SPRD
 Delta: O_D=  0.3207373E+00 O_OD= -0.1849075E-01 O_TOT=  0.3022465E+00 <-- DLTA
 ------------------------------------------------------------------------------
 Cycle:     12
  WF centre and spread    1  (  0.726129,  0.754095,  0.742673 )     2.94553890
  WF centre and spread    2  ( -0.158353, -0.646570,  0.272589 )     2.98332293
  WF centre and spread    3  (  0.516965, -0.557197, -0.698674 )     2.64256776
  WF centre and spread    4  (  0.618712,  0.624913,  0.183213 )     3.67737603
  Sum of centres and spreads (  1.703453,  0.175241,  0.499801 )    12.24880562
 
     12    -0.722E+00     5.2938331340       12.2488056246       0.21  <-- CONV
        O_D=      2.8611184 O_OD=      5.4810974 O_TOT=     12.2488056 <-- SPRD
 Delta: O_D= -0.6929095E+00 O_OD= -0.2903065E-01 O_TOT= -0.7219401E+00 <-- DLTA
 ------------------------------------------------------------------------------
 Cycle:     13
  WF centre and spread    1  (  0.747039,  0.765518,  0.760377 )     2.86094493
  WF centre and spread    2  ( -0.164584, -0.642558,  0.283656 )     2.93870184
  WF centre and spread    3  (  0.513747, -0.565940, -0.702416 )     2.58686011
  WF centre and spread    4  (  0.636137,  0.660515,  0.199969 )     3.60974252
  Sum of centres and spreads (  1.732339,  0.217535,  0.541586 )    11.99624940
 
     13    -0.253E+00     2.4443229276       11.9962494016       0.21  <-- CONV
        O_D=      2.6554442 O_OD=      5.4342153 O_TOT=     11.9962494 <-- SPRD
 Delta: O_D= -0.2056742E+00 O_OD= -0.4688207E-01 O_TOT= -0.2525562E+00 <-- DLTA
 ------------------------------------------------------------------------------
 Cycle:     14
  WF centre and spread    1  (  0.780411,  0.779774,  0.790496 )     2.76120767
  WF centre and spread    2  ( -0.188217, -0.648159,  0.318239 )     2.84100980
  WF centre and spread    3  (  0.508065, -0.579921, -0.708751 )     2.48889876
  WF centre and spread    4  (  0.412071,  0.471229, -0.024380 )     4.75690465
  Sum of centres and spreads (  1.512330,  0.022924,  0.375604 )    12.84802087
 
     14     0.852E+00     2.0748649609       12.8480208702       0.21  <-- CONV
        O_D=      3.6067601 O_OD=      5.3346709 O_TOT=     12.8480209 <-- SPRD
 Delta: O_D=  0.9513158E+00 O_OD= -0.9954438E-01 O_TOT=  0.8517715E+00 <-- DLTA
 ------------------------------------------------------------------------------
 Cycle:     15
  WF centre and spread    1  (  0.828822,  0.788164,  0.833507 )     2.90736116
  WF centre and spread    2  ( -0.143917, -0.670582,  0.311407 )     2.99483957
  WF centre and spread    3  (  0.538658, -0.616925, -0.775050 )     2.43290745
  WF centre and spread    4  (  0.208517,  0.670778, -0.142553 )     5.32978214
  Sum of centres and spreads (  1.432080,  0.171435,  0.227312 )    13.66489033
 
     15     0.817E+00    25.2390288517       13.6648903254       0.21  <-- CONV
        O_D=      4.4904706 O_OD=      5.2678299 O_TOT=     13.6648903 <-- SPRD
 Delta: O_D=  0.8837105E+00 O_OD= -0.6684106E-01 O_TOT=  0.8168695E+00 <-- DLTA
 ------------------------------------------------------------------------------
 Cycle:     16
  WF centre and spread    1  (  0.861961,  0.788344,  0.840771 )     2.70616288
  WF centre and spread    2  ( -0.139253, -0.694209,  0.325572 )     2.95338885
  WF centre and spread    3  (  0.546268, -0.599609, -0.760957 )     2.30279757
  WF centre and spread    4  (  0.077945,  0.688465, -0.225442 )     4.66948492
  Sum of centres and spreads (  1.346921,  0.182992,  0.179945 )    12.63183422
 
     16    -0.103E+01     5.6207982172       12.6318342237       0.21  <-- CONV
        O_D=      3.4934737 O_OD=      5.2317706 O_TOT=     12.6318342 <-- SPRD
 Delta: O_D= -0.9969969E+00 O_OD= -0.3605924E-01 O_TOT= -0.1033056E+01 <-- DLTA
 ------------------------------------------------------------------------------
 Cycle:     17
  WF centre and spread    1  (  0.893431,  0.799089,  0.875204 )     2.51449732
  WF centre and spread    2  ( -0.279569, -0.684794,  0.469249 )     2.84819863
  WF centre and spread    3  (  0.575574, -0.593597, -0.748172 )     2.18151756
  WF centre and spread    4  (  0.056317,  0.583877, -0.230014 )     3.66706340
  Sum of centres and spreads (  1.245753,  0.104575,  0.366267 )    11.21127691
 
     17    -0.142E+01     3.3836533345       11.2112769123       0.22  <-- CONV
        O_D=      2.3022790 O_OD=      5.0024080 O_TOT=     11.2112769 <-- SPRD
 Delta: O_D= -0.1191195E+01 O_OD= -0.2293626E+00 O_TOT= -0.1420557E+01 <-- DLTA
 ------------------------------------------------------------------------------
 Cycle:     18
  WF centre and spread    1  (  0.902348,  0.806649,  0.902136 )     2.61375372
  WF centre and spread    2  ( -0.288958, -0.627448,  0.448761 )     2.63292150
  WF centre and spread    3  (  0.575723, -0.644567, -0.669560 )     2.20325195
  WF centre and spread    4  ( -0.162638,  0.498746, -0.418467 )     3.57120235
  Sum of centres and spreads (  1.026474,  0.033380,  0.262869 )    11.02112952
 
     18    -0.190E+00     5.5809282102       11.0211295218       0.22  <-- CONV
        O_D=      2.2863501 O_OD=      4.8281895 O_TOT=     11.0211295 <-- SPRD
 Delta: O_D= -0.1592888E-01 O_OD= -0.1742185E+00 O_TOT= -0.1901474E+00 <-- DLTA
 ------------------------------------------------------------------------------
 Cycle:     19
  WF centre and spread    1  (  0.903268,  0.809502,  0.861063 )     2.35705205
  WF centre and spread    2  ( -0.485535, -0.716683,  0.558313 )     2.54772051
  WF centre and spread    3  (  0.606283, -0.706762, -0.638766 )     2.14706439
  WF centre and spread    4  ( -0.276535,  0.539233, -0.438022 )     3.17373217
  Sum of centres and spreads (  0.747481, -0.074709,  0.342587 )    10.22556912
 
     19    -0.796E+00     3.9567539378       10.2255691201       0.22  <-- CONV
        O_D=      1.7541104 O_OD=      4.5648688 O_TOT=     10.2255691 <-- SPRD
 Delta: O_D= -0.5322397E+00 O_OD= -0.2633207E+00 O_TOT= -0.7955604E+00 <-- DLTA
 ------------------------------------------------------------------------------
 Cycle:     20
  WF centre and spread    1  (  0.834672,  0.842043,  0.792077 )     2.54579342
  WF centre and spread    2  ( -0.572910, -0.678916,  0.711266 )     2.14427378
  WF centre and spread    3  (  0.642010, -0.717709, -0.704650 )     1.88257110
  WF centre and spread    4  ( -0.399537,  0.625128, -0.494904 )     2.72241262
  Sum of centres and spreads (  0.504236,  0.070546,  0.303788 )     9.29505093
 
     20    -0.931E+00     3.3069708300        9.2950509271       0.22  <-- CONV
        O_D=      1.2040142 O_OD=      4.1844468 O_TOT=      9.2950509 <-- SPRD
 Delta: O_D= -0.5500962E+00 O_OD= -0.3804220E+00 O_TOT= -0.9305182E+00 <-- DLTA
 ------------------------------------------------------------------------------
 Cycle:     21
  WF centre and spread    1  (  0.844905,  0.827163,  0.842307 )     1.96493222
  WF centre and spread    2  ( -0.723418, -0.815421,  0.748167 )     2.16789130
  WF centre and spread    3  (  0.693078, -0.741440, -0.738217 )     1.78424120
  WF centre and spread    4  ( -0.471156,  0.634296, -0.562893 )     2.57283939
  Sum of centres and spreads (  0.343409, -0.095402,  0.289364 )     8.48990412
 
     21    -0.805E+00     2.5992108736        8.4899041197       0.22  <-- CONV
        O_D=      0.7800448 O_OD=      3.8032694 O_TOT=      8.4899041 <-- SPRD
 Delta: O_D= -0.4239694E+00 O_OD= -0.3811774E+00 O_TOT= -0.8051468E+00 <-- DLTA
 ------------------------------------------------------------------------------
 Cycle:     22
  WF centre and spread    1  (  0.836789,  0.839101,  0.847003 )     1.73165516
  WF centre and spread    2  ( -0.742204, -0.797561,  0.786623 )     1.79786732
  WF centre and spread    3  (  0.748317, -0.789888, -0.774489 )     1.62843551
  WF centre and spread    4  ( -0.597881,  0.675277, -0.714082 )     2.36173079
  Sum of centres and spreads (  0.245021, -0.073071,  0.145055 )     7.51968879
 
     22    -0.970E+00     2.5333174860        7.5196887900       0.22  <-- CONV
        O_D=      0.5280757 O_OD=      3.0850232 O_TOT=      7.5196888 <-- SPRD
 Delta: O_D= -0.2519692E+00 O_OD= -0.7182462E+00 O_TOT= -0.9702153E+00 <-- DLTA
 ------------------------------------------------------------------------------
 Cycle:     23
  WF centre and spread    1  (  0.821361,  0.848250,  0.837159 )     1.45823590
  WF centre and spread    2  ( -0.819981, -0.856262,  0.808258 )     1.43645394
  WF centre and spread    3  (  0.803838, -0.831053, -0.816391 )     1.39621013
  WF centre and spread    4  ( -0.774018,  0.805055, -0.828077 )     1.76129885
  Sum of centres and spreads (  0.031201, -0.034011,  0.000949 )     6.05219882
 
     23    -0.147E+01     2.2003919199        6.0521988170       0.22  <-- CONV
        O_D=      0.3357573 O_OD=      1.8098517 O_TOT=      6.0521988 <-- SPRD
 Delta: O_D= -0.1923184E+00 O_OD= -0.1275172E+01 O_TOT= -0.1467490E+01 <-- DLTA
 ------------------------------------------------------------------------------
 Cycle:     24
  WF centre and spread    1  (  0.843595,  0.841062,  0.861032 )     1.31682115
  WF centre and spread    2  ( -0.857851, -0.871742,  0.838061 )     1.23404424
  WF centre and spread    3  (  0.846530, -0.851883, -0.839210 )     1.24150848
  WF centre and spread    4  ( -0.849532,  0.840876, -0.854661 )     1.42108940
  Sum of centres and spreads ( -0.017259, -0.041687,  0.005222 )     5.21346327
 
     24    -0.839E+00     1.6106006787        5.2134632683       0.22  <-- CONV
        O_D=      0.2032152 O_OD=      1.1036582 O_TOT=      5.2134633 <-- SPRD
 Delta: O_D= -0.1325421E+00 O_OD= -0.7061935E+00 O_TOT= -0.8387355E+00 <-- DLTA
 ------------------------------------------------------------------------------
 Cycle:     25
  WF centre and spread    1  (  0.844961,  0.839922,  0.867090 )     1.27513212
  WF centre and spread    2  ( -0.864789, -0.868086,  0.840845 )     1.23722088
  WF centre and spread    3  (  0.854685, -0.857508, -0.841514 )     1.20447261
  WF centre and spread    4  ( -0.852111,  0.838409, -0.851433 )     1.37935710
  Sum of centres and spreads ( -0.017254, -0.047263,  0.014987 )     5.09618271
 
     25    -0.117E+00     1.4646530851        5.0961827050       0.22  <-- CONV
        O_D=      0.1485383 O_OD=      1.0410545 O_TOT=      5.0961827 <-- SPRD
 Delta: O_D= -0.5467684E-01 O_OD= -0.6260373E-01 O_TOT= -0.1172806E+00 <-- DLTA
 ------------------------------------------------------------------------------
 Cycle:     26
  WF centre and spread    1  (  0.841524,  0.840295,  0.868536 )     1.21058139
  WF centre and spread    2  ( -0.865698, -0.862733,  0.842880 )     1.22498222
  WF centre and spread    3  (  0.854762, -0.858888, -0.841263 )     1.16729677
  WF centre and spread    4  ( -0.847094,  0.836847, -0.847295 )     1.29610947
  Sum of centres and spreads ( -0.016507, -0.044478,  0.022858 )     4.89896985
 
     26    -0.197E+00     1.3231269528        4.8989698536       0.23  <-- CONV
        O_D=      0.0844965 O_OD=      0.9078835 O_TOT=      4.8989699 <-- SPRD
 Delta: O_D= -0.6404182E-01 O_OD= -0.1331710E+00 O_TOT= -0.1972129E+00 <-- DLTA
 ------------------------------------------------------------------------------
 Cycle:     27
  WF centre and spread    1  (  0.845676,  0.843971,  0.863128 )     1.12023614
  WF centre and spread    2  ( -0.857121, -0.861287,  0.844424 )     1.10993434
  WF centre and spread    3  (  0.854268, -0.854187, -0.845922 )     1.10622068
  WF centre and spread    4  ( -0.849898,  0.847009, -0.851093 )     1.13076613
  Sum of centres and spreads ( -0.007075, -0.024495,  0.010536 )     4.46715728
 
     27    -0.432E+00     1.0551064071        4.4671572839       0.23  <-- CONV
        O_D=      0.0217270 O_OD=      0.5388404 O_TOT=      4.4671573 <-- SPRD
 Delta: O_D= -0.6276952E-01 O_OD= -0.3690430E+00 O_TOT= -0.4318126E+00 <-- DLTA
 ------------------------------------------------------------------------------
 Cycle:     28
  WF centre and spread    1  (  0.847462,  0.846073,  0.860774 )     1.11281970
  WF centre and spread    2  ( -0.854991, -0.858599,  0.845054 )     1.09984392
  WF centre and spread    3  (  0.853970, -0.852697, -0.847659 )     1.10158759
  WF centre and spread    4  ( -0.850227,  0.849602, -0.852077 )     1.11536420
  Sum of centres and spreads ( -0.003787, -0.015621,  0.006091 )     4.42961542
 
     28    -0.375E-01     0.3613837268        4.4296154171       0.23  <-- CONV
        O_D=      0.0126158 O_OD=      0.5104098 O_TOT=      4.4296154 <-- SPRD
 Delta: O_D= -0.9111204E-02 O_OD= -0.2843066E-01 O_TOT= -0.3754187E-01 <-- DLTA
 ------------------------------------------------------------------------------
 Cycle:     29
  WF centre and spread    1  (  0.848357,  0.847499,  0.858674 )     1.11050381
  WF centre and spread    2  ( -0.853542, -0.856318,  0.845613 )     1.09828967
  WF centre and spread    3  (  0.853546, -0.851629, -0.848723 )     1.10148982
  WF centre and spread    4  ( -0.850344,  0.850754, -0.852230 )     1.10962078
  Sum of centres and spreads ( -0.001984, -0.009694,  0.003333 )     4.41990408
 
     29    -0.971E-02     0.1948954556        4.4199040787       0.23  <-- CONV
        O_D=      0.0080102 O_OD=      0.5053040 O_TOT=      4.4199041 <-- SPRD
 Delta: O_D= -0.4605553E-02 O_OD= -0.5105785E-02 O_TOT= -0.9711338E-02 <-- DLTA
 ------------------------------------------------------------------------------
 Cycle:     30
  WF centre and spread    1  (  0.849626,  0.849786,  0.854685 )     1.10665579
  WF centre and spread    2  ( -0.851756, -0.852670,  0.847373 )     1.09987591
  WF centre and spread    3  (  0.852561, -0.850217, -0.850303 )     1.10272420
  WF centre and spread    4  ( -0.850618,  0.851872, -0.851982 )     1.10710397
  Sum of centres and spreads ( -0.000187, -0.001228, -0.000228 )     4.41635986
 
     30    -0.354E-02     0.0695815396        4.4163598617       0.23  <-- CONV
        O_D=      0.0079421 O_OD=      0.5018279 O_TOT=      4.4163599 <-- SPRD
 Delta: O_D= -0.6815823E-04 O_OD= -0.3476059E-02 O_TOT= -0.3544217E-02 <-- DLTA
 ------------------------------------------------------------------------------
 Cycle:     31
  WF centre and spread    1  (  0.850246,  0.850700,  0.852602 )     1.10455845
  WF centre and spread    2  ( -0.851335, -0.851401,  0.849005 )     1.10220138
  WF centre and spread    3  (  0.851959, -0.850092, -0.850929 )     1.10357811
  WF centre and spread    4  ( -0.850619,  0.851904, -0.851550 )     1.10505508
  Sum of centres and spreads (  0.000251,  0.001111, -0.000872 )     4.41539302
 
     31    -0.967E-03     0.0434183196        4.4153930230       0.23  <-- CONV
        O_D=      0.0079886 O_OD=      0.5008145 O_TOT=      4.4153930 <-- SPRD
 Delta: O_D=  0.4658121E-04 O_OD= -0.1013420E-02 O_TOT= -0.9668387E-03 <-- DLTA
 ------------------------------------------------------------------------------
 Cycle:     32
  WF centre and spread    1  (  0.850503,  0.850953,  0.851818 )     1.10376718
  WF centre and spread    2  ( -0.851283, -0.851131,  0.849870 )     1.10339140
  WF centre and spread    3  (  0.851677, -0.850269, -0.851080 )     1.10386887
  WF centre and spread    4  ( -0.850621,  0.851703, -0.851303 )     1.10409959
  Sum of centres and spreads (  0.000275,  0.001256, -0.000695 )     4.41512704
 
     32    -0.266E-03     0.0303618317        4.4151270449       0.23  <-- CONV
        O_D=      0.0079198 O_OD=      0.5006174 O_TOT=      4.4151270 <-- SPRD
 Delta: O_D= -0.6884120E-04 O_OD= -0.1971369E-03 O_TOT= -0.2659782E-03 <-- DLTA
 ------------------------------------------------------------------------------
 Cycle:     33
  WF centre and spread    1  (  0.850553,  0.850919,  0.851718 )     1.10370532
  WF centre and spread    2  ( -0.851292, -0.851191,  0.850097 )     1.10358149
  WF centre and spread    3  (  0.851581, -0.850424, -0.851034 )     1.10383808
  WF centre and spread    4  ( -0.850649,  0.851530, -0.851223 )     1.10390574
  Sum of centres and spreads (  0.000194,  0.000834, -0.000442 )     4.41503064
 
     33    -0.964E-04     0.0184609230        4.4150306423       0.23  <-- CONV
        O_D=      0.0079072 O_OD=      0.5005336 O_TOT=      4.4150306 <-- SPRD
 Delta: O_D= -0.1260925E-04 O_OD= -0.8379331E-04 O_TOT= -0.9640256E-04 <-- DLTA
 ------------------------------------------------------------------------------
 Cycle:     34
  WF centre and spread    1  (  0.850639,  0.850883,  0.851557 )     1.10365323
  WF centre and spread    2  ( -0.851285, -0.851248,  0.850415 )     1.10382242
  WF centre and spread    3  (  0.851433, -0.850640, -0.850979 )     1.10380707
  WF centre and spread    4  ( -0.850705,  0.851298, -0.851118 )     1.10370201
  Sum of centres and spreads (  0.000082,  0.000292, -0.000126 )     4.41498474
 
     34    -0.459E-04     0.0114370151        4.4149847351       0.23  <-- CONV
        O_D=      0.0078969 O_OD=      0.5004979 O_TOT=      4.4149847 <-- SPRD
 Delta: O_D= -0.1024520E-04 O_OD= -0.3566195E-04 O_TOT= -0.4590715E-04 <-- DLTA
 ------------------------------------------------------------------------------
 Cycle:     35
  WF centre and spread    1  (  0.850768,  0.850884,  0.851344 )     1.10365256
  WF centre and spread    2  ( -0.851227, -0.851230,  0.850730 )     1.10393756
  WF centre and spread    3  (  0.851253, -0.850851, -0.850953 )     1.10377330
  WF centre and spread    4  ( -0.850808,  0.851098, -0.851034 )     1.10360198
  Sum of centres and spreads ( -0.000015, -0.000099,  0.000087 )     4.41496540
 
     35    -0.193E-04     0.0059436636        4.4149654025       0.24  <-- CONV
        O_D=      0.0078954 O_OD=      0.5004801 O_TOT=      4.4149654 <-- SPRD
 Delta: O_D= -0.1545147E-05 O_OD= -0.1778753E-04 O_TOT= -0.1933268E-04 <-- DLTA
 ------------------------------------------------------------------------------
 Cycle:     36
  WF centre and spread    1  (  0.850901,  0.850943,  0.851166 )     1.10370956
  WF centre and spread    2  ( -0.851119, -0.851124,  0.850897 )     1.10382957
  WF centre and spread    3  (  0.851113, -0.850958, -0.850977 )     1.10374468
  WF centre and spread    4  ( -0.850927,  0.851031, -0.851018 )     1.10367555
  Sum of centres and spreads ( -0.000031, -0.000108,  0.000068 )     4.41495937
 
     36    -0.604E-05     0.0029997912        4.4149593650       0.24  <-- CONV
        O_D=      0.0078956 O_OD=      0.5004739 O_TOT=      4.4149594 <-- SPRD
 Delta: O_D=  0.1855239E-06 O_OD= -0.6222954E-05 O_TOT= -0.6037430E-05 <-- DLTA
 ------------------------------------------------------------------------------
 Cycle:     37
  WF centre and spread    1  (  0.850966,  0.850980,  0.851085 )     1.10374090
  WF centre and spread    2  ( -0.851058, -0.851064,  0.850960 )     1.10375598
  WF centre and spread    3  (  0.851053, -0.850995, -0.850995 )     1.10373367
  WF centre and spread    4  ( -0.850982,  0.851017, -0.851017 )     1.10372694
  Sum of centres and spreads ( -0.000021, -0.000062,  0.000032 )     4.41495749
 
     37    -0.187E-05     0.0023507114        4.4149574944       0.24  <-- CONV
        O_D=      0.0078954 O_OD=      0.5004722 O_TOT=      4.4149575 <-- SPRD
 Delta: O_D= -0.1620740E-06 O_OD= -0.1708534E-05 O_TOT= -0.1870608E-05 <-- DLTA
 ------------------------------------------------------------------------------
 Cycle:     38
  WF centre and spread    1  (  0.850999,  0.851001,  0.851044 )     1.10375490
  WF centre and spread    2  ( -0.851025, -0.851031,  0.850989 )     1.10371820
  WF centre and spread    3  (  0.851025, -0.851010, -0.851006 )     1.10373035
  WF centre and spread    4  ( -0.851009,  0.851015, -0.851019 )     1.10375334
  Sum of centres and spreads ( -0.000009, -0.000024,  0.000007 )     4.41495680
 
     38    -0.695E-06     0.0015427404        4.4149567994       0.24  <-- CONV
        O_D=      0.0078952 O_OD=      0.5004717 O_TOT=      4.4149568 <-- SPRD
 Delta: O_D= -0.1848767E-06 O_OD= -0.5101261E-06 O_TOT= -0.6950028E-06 <-- DLTA
 ------------------------------------------------------------------------------
 Cycle:     39
  WF centre and spread    1  (  0.851003,  0.851004,  0.851037 )     1.10375109
  WF centre and spread    2  ( -0.851022, -0.851027,  0.850994 )     1.10372285
  WF centre and spread    3  (  0.851024, -0.851010, -0.851008 )     1.10373276
  WF centre and spread    4  ( -0.851009,  0.851016, -0.851018 )     1.10375003
  Sum of centres and spreads ( -0.000005, -0.000016,  0.000005 )     4.41495673
 
     39    -0.659E-07     0.0004040710        4.4149567335       0.24  <-- CONV
        O_D=      0.0078952 O_OD=      0.5004716 O_TOT=      4.4149567 <-- SPRD
 Delta: O_D=  0.4454494E-08 O_OD= -0.7035796E-07 O_TOT= -0.6590347E-07 <-- DLTA
 ------------------------------------------------------------------------------
 Cycle:     40
  WF centre and spread    1  (  0.851005,  0.851006,  0.851033 )     1.10374830
  WF centre and spread    2  ( -0.851020, -0.851024,  0.850998 )     1.10372641
  WF centre and spread    3  (  0.851022, -0.851010, -0.851010 )     1.10373438
  WF centre and spread    4  ( -0.851010,  0.851017, -0.851017 )     1.10374763
  Sum of centres and spreads ( -0.000003, -0.000012,  0.000003 )     4.41495672
 
     40    -0.885E-08     0.0001738023        4.4149567247       0.24  <-- CONV
        O_D=      0.0078952 O_OD=      0.5004716 O_TOT=      4.4149567 <-- SPRD
 Delta: O_D=  0.3213203E-09 O_OD= -0.9170217E-08 O_TOT= -0.8848898E-08 <-- DLTA
 ------------------------------------------------------------------------------
 Cycle:     41
  WF centre and spread    1  (  0.851008,  0.851009,  0.851026 )     1.10374436
  WF centre and spread    2  ( -0.851018, -0.851020,  0.851003 )     1.10373160
  WF centre and spread    3  (  0.851020, -0.851011, -0.851012 )     1.10373657
  WF centre and spread    4  ( -0.851011,  0.851017, -0.851016 )     1.10374420
  Sum of centres and spreads ( -0.000001, -0.000005,  0.000001 )     4.41495672
 
     41    -0.477E-08     0.0001102393        4.4149567199       0.24  <-- CONV
        O_D=      0.0078952 O_OD=      0.5004716 O_TOT=      4.4149567 <-- SPRD
 Delta: O_D= -0.7980248E-09 O_OD= -0.3970832E-08 O_TOT= -0.4768856E-08 <-- DLTA
 ------------------------------------------------------------------------------
 Cycle:     42
  WF centre and spread    1  (  0.851012,  0.851014,  0.851017 )     1.10373888
  WF centre and spread    2  ( -0.851016, -0.851016,  0.851011 )     1.10373918
  WF centre and spread    3  (  0.851017, -0.851012, -0.851014 )     1.10373943
  WF centre and spread    4  ( -0.851013,  0.851016, -0.851015 )     1.10373923
  Sum of centres and spreads (  0.000000,  0.000002, -0.000001 )     4.41495672
 
     42    -0.334E-08     0.0000677856        4.4149567166       0.24  <-- CONV
        O_D=      0.0078952 O_OD=      0.5004716 O_TOT=      4.4149567 <-- SPRD
 Delta: O_D= -0.1415157E-08 O_OD= -0.1925631E-08 O_TOT= -0.3340788E-08 <-- DLTA
 ------------------------------------------------------------------------------
 Cycle:     43
  WF centre and spread    1  (  0.851013,  0.851014,  0.851015 )     1.10373810
  WF centre and spread    2  ( -0.851015, -0.851015,  0.851013 )     1.10374052
  WF centre and spread    3  (  0.851016, -0.851013, -0.851014 )     1.10373978
  WF centre and spread    4  ( -0.851013,  0.851015, -0.851015 )     1.10373832
  Sum of centres and spreads (  0.000000,  0.000002, -0.000001 )     4.41495672
 
     43    -0.486E-09     0.0000331380        4.4149567161       0.24  <-- CONV
        O_D=      0.0078952 O_OD=      0.5004716 O_TOT=      4.4149567 <-- SPRD
 Delta: O_D=  0.2505371E-09 O_OD= -0.7362303E-09 O_TOT= -0.4856924E-09 <-- DLTA
 ------------------------------------------------------------------------------
 Cycle:     44
  WF centre and spread    1  (  0.851014,  0.851014,  0.851015 )     1.10373813
  WF centre and spread    2  ( -0.851015, -0.851015,  0.851014 )     1.10374062
  WF centre and spread    3  (  0.851015, -0.851013, -0.851014 )     1.10373974
  WF centre and spread    4  ( -0.851014,  0.851015, -0.851014 )     1.10373823
  Sum of centres and spreads (  0.000000,  0.000001,  0.000000 )     4.41495672
 
     44    -0.110E-09     0.0000192576        4.4149567160       0.25  <-- CONV
        O_D=      0.0078952 O_OD=      0.5004716 O_TOT=      4.4149567 <-- SPRD
 Delta: O_D=  0.1670551E-09 O_OD= -0.2767713E-09 O_TOT= -0.1097167E-09 <-- DLTA
 ------------------------------------------------------------------------------
 Cycle:     45
  WF centre and spread    1  (  0.851014,  0.851014,  0.851015 )     1.10373832
  WF centre and spread    2  ( -0.851015, -0.851015,  0.851014 )     1.10374039
  WF centre and spread    3  (  0.851015, -0.851014, -0.851014 )     1.10373963
  WF centre and spread    4  ( -0.851014,  0.851015, -0.851014 )     1.10373838
  Sum of centres and spreads (  0.000000,  0.000001,  0.000000 )     4.41495672
 
     45    -0.397E-10     0.0000122826        4.4149567159       0.25  <-- CONV
        O_D=      0.0078952 O_OD=      0.5004716 O_TOT=      4.4149567 <-- SPRD
 Delta: O_D= -0.1307536E-11 O_OD= -0.3837275E-10 O_TOT= -0.3968026E-10 <-- DLTA
 ------------------------------------------------------------------------------
 Cycle:     46
  WF centre and spread    1  (  0.851014,  0.851014,  0.851015 )     1.10373866
  WF centre and spread    2  ( -0.851015, -0.851015,  0.851014 )     1.10373994
  WF centre and spread    3  (  0.851015, -0.851014, -0.851014 )     1.10373945
  WF centre and spread    4  ( -0.851014,  0.851015, -0.851014 )     1.10373867
  Sum of centres and spreads (  0.000000,  0.000001,  0.000000 )     4.41495672
 
     46    -0.221E-10     0.0000074031        4.4149567159       0.25  <-- CONV
        O_D=      0.0078952 O_OD=      0.5004716 O_TOT=      4.4149567 <-- SPRD
 Delta: O_D=  0.4078966E-11 O_OD= -0.2616785E-10 O_TOT= -0.2208900E-10 <-- DLTA
 ------------------------------------------------------------------------------
 Cycle:     47
  WF centre and spread    1  (  0.851014,  0.851014,  0.851015 )     1.10373905
  WF centre and spread    2  ( -0.851014, -0.851014,  0.851014 )     1.10373941
  WF centre and spread    3  (  0.851015, -0.851014, -0.851014 )     1.10373924
  WF centre and spread    4  ( -0.851014,  0.851014, -0.851014 )     1.10373902
  Sum of centres and spreads (  0.000000,  0.000000,  0.000000 )     4.41495672
 
     47    -0.115E-10     0.0000044529        4.4149567159       0.25  <-- CONV
        O_D=      0.0078952 O_OD=      0.5004716 O_TOT=      4.4149567 <-- SPRD
 Delta: O_D= -0.9826497E-12 O_OD= -0.1054745E-10 O_TOT= -0.1153033E-10 <-- DLTA
 ------------------------------------------------------------------------------
 Cycle:     48
  WF centre and spread    1  (  0.851014,  0.851014,  0.851014 )     1.10373919
  WF centre and spread    2  ( -0.851014, -0.851014,  0.851014 )     1.10373919
  WF centre and spread    3  (  0.851014, -0.851014, -0.851014 )     1.10373917
  WF centre and spread    4  ( -0.851014,  0.851014, -0.851014 )     1.10373917
  Sum of centres and spreads (  0.000000,  0.000000,  0.000000 )     4.41495672
 
     48    -0.240E-11     0.0000020894        4.4149567159       0.25  <-- CONV
        O_D=      0.0078952 O_OD=      0.5004716 O_TOT=      4.4149567 <-- SPRD
 Delta: O_D= -0.3737219E-11 O_OD=  0.1334821E-11 O_TOT= -0.2402523E-11 <-- DLTA
 ------------------------------------------------------------------------------
 Cycle:     49
  WF centre and spread    1  (  0.851014,  0.851014,  0.851014 )     1.10373922
  WF centre and spread    2  ( -0.851014, -0.851014,  0.851014 )     1.10373913
  WF centre and spread    3  (  0.851014, -0.851014, -0.851014 )     1.10373916
  WF centre and spread    4  ( -0.851014,  0.851014, -0.851014 )     1.10373921
  Sum of centres and spreads (  0.000000,  0.000000,  0.000000 )     4.41495672
 
     49    -0.599E-12     0.0000013992        4.4149567159       0.25  <-- CONV
        O_D=      0.0078952 O_OD=      0.5004716 O_TOT=      4.4149567 <-- SPRD
 Delta: O_D= -0.5345863E-12 O_OD= -0.6439294E-13 O_TOT= -0.5986323E-12 <-- DLTA
 ------------------------------------------------------------------------------
 Cycle:     50
  WF centre and spread    1  (  0.851014,  0.851014,  0.851014 )     1.10373923
  WF centre and spread    2  ( -0.851014, -0.851014,  0.851014 )     1.10373912
  WF centre and spread    3  (  0.851014, -0.851014, -0.851014 )     1.10373915
  WF centre and spread    4  ( -0.851014,  0.851014, -0.851014 )     1.10373922
  Sum of centres and spreads (  0.000000,  0.000000,  0.000000 )     4.41495672
 
     50    -0.268E-12     0.0000008527        4.4149567159       0.25  <-- CONV
        O_D=      0.0078952 O_OD=      0.5004716 O_TOT=      4.4149567 <-- SPRD
 Delta: O_D=  0.6615281E-12 O_OD= -0.9299228E-12 O_TOT= -0.2682299E-12 <-- DLTA
 ------------------------------------------------------------------------------
 Cycle:     51
  WF centre and spread    1  (  0.851014,  0.851014,  0.851014 )     1.10373922
  WF centre and spread    2  ( -0.851014, -0.851014,  0.851014 )     1.10373912
  WF centre and spread    3  (  0.851014, -0.851014, -0.851014 )     1.10373915
  WF centre and spread    4  ( -0.851014,  0.851014, -0.851014 )     1.10373922
  Sum of centres and spreads (  0.000000,  0.000000,  0.000000 )     4.41495672
 
     51     0.000E+00     0.0000003368        4.4149567159       0.25  <-- CONV
        O_D=      0.0078952 O_OD=      0.5004716 O_TOT=      4.4149567 <-- SPRD
 Delta: O_D=  0.0000000E+00 O_OD=  0.0000000E+00 O_TOT=  0.0000000E+00 <-- DLTA
 ------------------------------------------------------------------------------
 Cycle:     52
  WF centre and spread    1  (  0.851014,  0.851014,  0.851014 )     1.10373921
  WF centre and spread    2  ( -0.851014, -0.851014,  0.851014 )     1.10373914
  WF centre and spread    3  (  0.851014, -0.851014, -0.851014 )     1.10373916
  WF centre and spread    4  ( -0.851014,  0.851014, -0.851014 )     1.10373921
  Sum of centres and spreads (  0.000000,  0.000000,  0.000000 )     4.41495672
 
     52    -0.462E-13     0.0000002925        4.4149567159       0.25  <-- CONV
        O_D=      0.0078952 O_OD=      0.5004716 O_TOT=      4.4149567 <-- SPRD
 Delta: O_D=  0.3570703E-12 O_OD= -0.4034550E-12 O_TOT= -0.4618528E-13 <-- DLTA
 ------------------------------------------------------------------------------
 Cycle:     53
  WF centre and spread    1  (  0.851014,  0.851014,  0.851014 )     1.10373920
  WF centre and spread    2  ( -0.851014, -0.851014,  0.851014 )     1.10373915
  WF centre and spread    3  (  0.851014, -0.851014, -0.851014 )     1.10373917
  WF centre and spread    4  ( -0.851014,  0.851014, -0.851014 )     1.10373919
  Sum of centres and spreads (  0.000000,  0.000000,  0.000000 )     4.41495672
 
     53    -0.222E-13     0.0000001779        4.4149567159       0.25  <-- CONV
        O_D=      0.0078952 O_OD=      0.5004716 O_TOT=      4.4149567 <-- SPRD
 Delta: O_D=  0.1935674E-12 O_OD= -0.2158274E-12 O_TOT= -0.2220446E-13 <-- DLTA
 ------------------------------------------------------------------------------
 Cycle:     54
  WF centre and spread    1  (  0.851014,  0.851014,  0.851014 )     1.10373919
  WF centre and spread    2  ( -0.851014, -0.851014,  0.851014 )     1.10373917
  WF centre and spread    3  (  0.851014, -0.851014, -0.851014 )     1.10373917
  WF centre and spread    4  ( -0.851014,  0.851014, -0.851014 )     1.10373918
  Sum of centres and spreads (  0.000000,  0.000000,  0.000000 )     4.41495672
 
     54    -0.142E-13     0.0000001516        4.4149567159       0.26  <-- CONV
        O_D=      0.0078952 O_OD=      0.5004716 O_TOT=      4.4149567 <-- SPRD
 Delta: O_D=  0.3389823E-13 O_OD= -0.4851675E-13 O_TOT= -0.1421085E-13 <-- DLTA
 ------------------------------------------------------------------------------
 Cycle:     55
  WF centre and spread    1  (  0.851014,  0.851014,  0.851014 )     1.10373919
  WF centre and spread    2  ( -0.851014, -0.851014,  0.851014 )     1.10373917
  WF centre and spread    3  (  0.851014, -0.851014, -0.851014 )     1.10373917
  WF centre and spread    4  ( -0.851014,  0.851014, -0.851014 )     1.10373918
  Sum of centres and spreads (  0.000000,  0.000000,  0.000000 )     4.41495672
 
     55     0.000E+00     0.0000001084        4.4149567159       0.26  <-- CONV
        O_D=      0.0078952 O_OD=      0.5004716 O_TOT=      4.4149567 <-- SPRD
 Delta: O_D=  0.0000000E+00 O_OD=  0.0000000E+00 O_TOT=  0.0000000E+00 <-- DLTA
 ------------------------------------------------------------------------------
 Cycle:     56
  WF centre and spread    1  (  0.851014,  0.851014,  0.851014 )     1.10373919
  WF centre and spread    2  ( -0.851014, -0.851014,  0.851014 )     1.10373917
  WF centre and spread    3  (  0.851014, -0.851014, -0.851014 )     1.10373917
  WF centre and spread    4  ( -0.851014,  0.851014, -0.851014 )     1.10373918
  Sum of centres and spreads (  0.000000,  0.000000,  0.000000 )     4.41495672
 
     56    -0.266E-14     0.0000000911        4.4149567159       0.26  <-- CONV
        O_D=      0.0078952 O_OD=      0.5004716 O_TOT=      4.4149567 <-- SPRD
 Delta: O_D= -0.5541401E-13 O_OD=  0.5262457E-13 O_TOT= -0.2664535E-14 <-- DLTA
 ------------------------------------------------------------------------------
 Cycle:     57
  WF centre and spread    1  (  0.851014,  0.851014,  0.851014 )     1.10373919
  WF centre and spread    2  ( -0.851014, -0.851014,  0.851014 )     1.10373917
  WF centre and spread    3  (  0.851014, -0.851014, -0.851014 )     1.10373917
  WF centre and spread    4  ( -0.851014,  0.851014, -0.851014 )     1.10373918
  Sum of centres and spreads (  0.000000,  0.000000,  0.000000 )     4.41495672
 
     57     0.000E+00     0.0000000684        4.4149567159       0.26  <-- CONV
        O_D=      0.0078952 O_OD=      0.5004716 O_TOT=      4.4149567 <-- SPRD
 Delta: O_D=  0.0000000E+00 O_OD=  0.0000000E+00 O_TOT=  0.0000000E+00 <-- DLTA
 ------------------------------------------------------------------------------
 Cycle:     58
  WF centre and spread    1  (  0.851014,  0.851014,  0.851014 )     1.10373919
  WF centre and spread    2  ( -0.851014, -0.851014,  0.851014 )     1.10373918
  WF centre and spread    3  (  0.851014, -0.851014, -0.851014 )     1.10373917
  WF centre and spread    4  ( -0.851014,  0.851014, -0.851014 )     1.10373918
  Sum of centres and spreads (  0.000000,  0.000000,  0.000000 )     4.41495672
 
     58     0.000E+00     0.0000000615        4.4149567159       0.26  <-- CONV
        O_D=      0.0078952 O_OD=      0.5004716 O_TOT=      4.4149567 <-- SPRD
 Delta: O_D=  0.0000000E+00 O_OD=  0.0000000E+00 O_TOT=  0.0000000E+00 <-- DLTA
 ------------------------------------------------------------------------------
 Cycle:     59
  WF centre and spread    1  (  0.851014,  0.851014,  0.851014 )     1.10373919
  WF centre and spread    2  ( -0.851014, -0.851014,  0.851014 )     1.10373918
  WF centre and spread    3  (  0.851014, -0.851014, -0.851014 )     1.10373917
  WF centre and spread    4  ( -0.851014,  0.851014, -0.851014 )     1.10373918
  Sum of centres and spreads (  0.000000,  0.000000,  0.000000 )     4.41495672
 
     59     0.000E+00     0.0000000507        4.4149567159       0.26  <-- CONV
        O_D=      0.0078952 O_OD=      0.5004716 O_TOT=      4.4149567 <-- SPRD
 Delta: O_D=  0.0000000E+00 O_OD=  0.0000000E+00 O_TOT=  0.0000000E+00 <-- DLTA
 ------------------------------------------------------------------------------
 Cycle:     60
  WF centre and spread    1  (  0.851014,  0.851014,  0.851014 )     1.10373919
  WF centre and spread    2  ( -0.851014, -0.851014,  0.851014 )     1.10373918
  WF centre and spread    3  (  0.851014, -0.851014, -0.851014 )     1.10373917
  WF centre and spread    4  ( -0.851014,  0.851014, -0.851014 )     1.10373918
  Sum of centres and spreads (  0.000000,  0.000000,  0.000000 )     4.41495672
 
     60     0.000E+00     0.0000000408        4.4149567159       0.26  <-- CONV
        O_D=      0.0078952 O_OD=      0.5004716 O_TOT=      4.4149567 <-- SPRD
 Delta: O_D=  0.0000000E+00 O_OD=  0.0000000E+00 O_TOT=  0.0000000E+00 <-- DLTA
 ------------------------------------------------------------------------------
 Cycle:     61
  WF centre and spread    1  (  0.851014,  0.851014,  0.851014 )     1.10373919
  WF centre and spread    2  ( -0.851014, -0.851014,  0.851014 )     1.10373918
  WF centre and spread    3  (  0.851014, -0.851014, -0.851014 )     1.10373917
  WF centre and spread    4  ( -0.851014,  0.851014, -0.851014 )     1.10373918
  Sum of centres and spreads (  0.000000,  0.000000,  0.000000 )     4.41495672
 
     61     0.000E+00     0.0000000340        4.4149567159       0.26  <-- CONV
        O_D=      0.0078952 O_OD=      0.5004716 O_TOT=      4.4149567 <-- SPRD
 Delta: O_D=  0.0000000E+00 O_OD=  0.0000000E+00 O_TOT=  0.0000000E+00 <-- DLTA
 ------------------------------------------------------------------------------
 Cycle:     62
  WF centre and spread    1  (  0.851014,  0.851014,  0.851014 )     1.10373919
  WF centre and spread    2  ( -0.851014, -0.851014,  0.851014 )     1.10373918
  WF centre and spread    3  (  0.851014, -0.851014, -0.851014 )     1.10373917
  WF centre and spread    4  ( -0.851014,  0.851014, -0.851014 )     1.10373918
  Sum of centres and spreads (  0.000000,  0.000000,  0.000000 )     4.41495672
 
     62     0.000E+00     0.0000000297        4.4149567159       0.26  <-- CONV
        O_D=      0.0078952 O_OD=      0.5004716 O_TOT=      4.4149567 <-- SPRD
 Delta: O_D=  0.0000000E+00 O_OD=  0.0000000E+00 O_TOT=  0.0000000E+00 <-- DLTA
 ------------------------------------------------------------------------------
 Cycle:     63
  WF centre and spread    1  (  0.851014,  0.851014,  0.851014 )     1.10373919
  WF centre and spread    2  ( -0.851014, -0.851014,  0.851014 )     1.10373918
  WF centre and spread    3  (  0.851014, -0.851014, -0.851014 )     1.10373917
  WF centre and spread    4  ( -0.851014,  0.851014, -0.851014 )     1.10373918
  Sum of centres and spreads (  0.000000,  0.000000,  0.000000 )     4.41495672
 
     63     0.888E-15     0.0000000267        4.4149567159       0.26  <-- CONV
        O_D=      0.0078952 O_OD=      0.5004716 O_TOT=      4.4149567 <-- SPRD
 Delta: O_D=  0.2706169E-15 O_OD= -0.2220446E-15 O_TOT=  0.8881784E-15 <-- DLTA
 ------------------------------------------------------------------------------
 Cycle:     64
  WF centre and spread    1  (  0.851014,  0.851014,  0.851014 )     1.10373919
  WF centre and spread    2  ( -0.851014, -0.851014,  0.851014 )     1.10373918
  WF centre and spread    3  (  0.851014, -0.851014, -0.851014 )     1.10373918
  WF centre and spread    4  ( -0.851014,  0.851014, -0.851014 )     1.10373918
  Sum of centres and spreads (  0.000000,  0.000000,  0.000000 )     4.41495672
 
     64     0.000E+00     0.0000000266        4.4149567159       0.26  <-- CONV
        O_D=      0.0078952 O_OD=      0.5004716 O_TOT=      4.4149567 <-- SPRD
 Delta: O_D=  0.0000000E+00 O_OD=  0.0000000E+00 O_TOT=  0.0000000E+00 <-- DLTA
 ------------------------------------------------------------------------------
 Cycle:     65
  WF centre and spread    1  (  0.851014,  0.851014,  0.851014 )     1.10373919
  WF centre and spread    2  ( -0.851014, -0.851014,  0.851014 )     1.10373918
  WF centre and spread    3  (  0.851014, -0.851014, -0.851014 )     1.10373918
  WF centre and spread    4  ( -0.851014,  0.851014, -0.851014 )     1.10373918
  Sum of centres and spreads (  0.000000,  0.000000,  0.000000 )     4.41495672
 
     65     0.000E+00     0.0000000237        4.4149567159       0.26  <-- CONV
        O_D=      0.0078952 O_OD=      0.5004716 O_TOT=      4.4149567 <-- SPRD
 Delta: O_D=  0.0000000E+00 O_OD=  0.0000000E+00 O_TOT=  0.0000000E+00 <-- DLTA
 ------------------------------------------------------------------------------
 Cycle:     66
  WF centre and spread    1  (  0.851014,  0.851014,  0.851014 )     1.10373919
  WF centre and spread    2  ( -0.851014, -0.851014,  0.851014 )     1.10373918
  WF centre and spread    3  (  0.851014, -0.851014, -0.851014 )     1.10373918
  WF centre and spread    4  ( -0.851014,  0.851014, -0.851014 )     1.10373918
  Sum of centres and spreads (  0.000000,  0.000000,  0.000000 )     4.41495672
 
     66     0.000E+00     0.0000000206        4.4149567159       0.26  <-- CONV
        O_D=      0.0078952 O_OD=      0.5004716 O_TOT=      4.4149567 <-- SPRD
 Delta: O_D=  0.0000000E+00 O_OD=  0.0000000E+00 O_TOT=  0.0000000E+00 <-- DLTA
 ------------------------------------------------------------------------------
 Cycle:     67
  WF centre and spread    1  (  0.851014,  0.851014,  0.851014 )     1.10373919
  WF centre and spread    2  ( -0.851014, -0.851014,  0.851014 )     1.10373918
  WF centre and spread    3  (  0.851014, -0.851014, -0.851014 )     1.10373918
  WF centre and spread    4  ( -0.851014,  0.851014, -0.851014 )     1.10373918
  Sum of centres and spreads (  0.000000,  0.000000,  0.000000 )     4.41495672
 
     67     0.888E-15     0.0000000177        4.4149567159       0.27  <-- CONV
        O_D=      0.0078952 O_OD=      0.5004716 O_TOT=      4.4149567 <-- SPRD
 Delta: O_D=  0.5724587E-15 O_OD=  0.4440892E-15 O_TOT=  0.8881784E-15 <-- DLTA
 ------------------------------------------------------------------------------
 Cycle:     68
  WF centre and spread    1  (  0.851014,  0.851014,  0.851014 )     1.10373918
  WF centre and spread    2  ( -0.851014, -0.851014,  0.851014 )     1.10373918
  WF centre and spread    3  (  0.851014, -0.851014, -0.851014 )     1.10373918
  WF centre and spread    4  ( -0.851014,  0.851014, -0.851014 )     1.10373918
  Sum of centres and spreads (  0.000000,  0.000000,  0.000000 )     4.41495672
 
     68     0.000E+00     0.0000000175        4.4149567159       0.27  <-- CONV
        O_D=      0.0078952 O_OD=      0.5004716 O_TOT=      4.4149567 <-- SPRD
 Delta: O_D=  0.0000000E+00 O_OD=  0.0000000E+00 O_TOT=  0.0000000E+00 <-- DLTA
 ------------------------------------------------------------------------------
 Cycle:     69
  WF centre and spread    1  (  0.851014,  0.851014,  0.851014 )     1.10373918
  WF centre and spread    2  ( -0.851014, -0.851014,  0.851014 )     1.10373918
  WF centre and spread    3  (  0.851014, -0.851014, -0.851014 )     1.10373918
  WF centre and spread    4  ( -0.851014,  0.851014, -0.851014 )     1.10373918
  Sum of centres and spreads (  0.000000,  0.000000,  0.000000 )     4.41495672
 
     69     0.000E+00     0.0000000144        4.4149567159       0.27  <-- CONV
        O_D=      0.0078952 O_OD=      0.5004716 O_TOT=      4.4149567 <-- SPRD
 Delta: O_D=  0.0000000E+00 O_OD=  0.0000000E+00 O_TOT=  0.0000000E+00 <-- DLTA
 ------------------------------------------------------------------------------
 Cycle:     70
  WF centre and spread    1  (  0.851014,  0.851014,  0.851014 )     1.10373918
  WF centre and spread    2  ( -0.851014, -0.851014,  0.851014 )     1.10373918
  WF centre and spread    3  (  0.851014, -0.851014, -0.851014 )     1.10373918
  WF centre and spread    4  ( -0.851014,  0.851014, -0.851014 )     1.10373918
  Sum of centres and spreads (  0.000000,  0.000000,  0.000000 )     4.41495672
 
     70     0.000E+00     0.0000000137        4.4149567159       0.27  <-- CONV
        O_D=      0.0078952 O_OD=      0.5004716 O_TOT=      4.4149567 <-- SPRD
 Delta: O_D= -0.1734723E-17 O_OD= -0.3330669E-15 O_TOT=  0.0000000E+00 <-- DLTA
 ------------------------------------------------------------------------------
 Cycle:     71
  WF centre and spread    1  (  0.851014,  0.851014,  0.851014 )     1.10373918
  WF centre and spread    2  ( -0.851014, -0.851014,  0.851014 )     1.10373918
  WF centre and spread    3  (  0.851014, -0.851014, -0.851014 )     1.10373918
  WF centre and spread    4  ( -0.851014,  0.851014, -0.851014 )     1.10373918
  Sum of centres and spreads (  0.000000,  0.000000,  0.000000 )     4.41495672
 
     71     0.000E+00     0.0000000137        4.4149567159       0.27  <-- CONV
        O_D=      0.0078952 O_OD=      0.5004716 O_TOT=      4.4149567 <-- SPRD
 Delta: O_D=  0.0000000E+00 O_OD=  0.0000000E+00 O_TOT=  0.0000000E+00 <-- DLTA
 ------------------------------------------------------------------------------
 Cycle:     72
  WF centre and spread    1  (  0.851014,  0.851014,  0.851014 )     1.10373918
  WF centre and spread    2  ( -0.851014, -0.851014,  0.851014 )     1.10373918
  WF centre and spread    3  (  0.851014, -0.851014, -0.851014 )     1.10373918
  WF centre and spread    4  ( -0.851014,  0.851014, -0.851014 )     1.10373918
  Sum of centres and spreads (  0.000000,  0.000000,  0.000000 )     4.41495672
 
     72     0.000E+00     0.0000000131        4.4149567159       0.27  <-- CONV
        O_D=      0.0078952 O_OD=      0.5004716 O_TOT=      4.4149567 <-- SPRD
 Delta: O_D=  0.0000000E+00 O_OD=  0.0000000E+00 O_TOT=  0.0000000E+00 <-- DLTA
 ------------------------------------------------------------------------------
 Cycle:     73
  WF centre and spread    1  (  0.851014,  0.851014,  0.851014 )     1.10373918
  WF centre and spread    2  ( -0.851014, -0.851014,  0.851014 )     1.10373918
  WF centre and spread    3  (  0.851014, -0.851014, -0.851014 )     1.10373918
  WF centre and spread    4  ( -0.851014,  0.851014, -0.851014 )     1.10373918
  Sum of centres and spreads (  0.000000,  0.000000,  0.000000 )     4.41495672
 
     73     0.000E+00     0.0000000126        4.4149567159       0.27  <-- CONV
        O_D=      0.0078952 O_OD=      0.5004716 O_TOT=      4.4149567 <-- SPRD
 Delta: O_D=  0.0000000E+00 O_OD=  0.0000000E+00 O_TOT=  0.0000000E+00 <-- DLTA
 ------------------------------------------------------------------------------
 Cycle:     74
  WF centre and spread    1  (  0.851014,  0.851014,  0.851014 )     1.10373918
  WF centre and spread    2  ( -0.851014, -0.851014,  0.851014 )     1.10373918
  WF centre and spread    3  (  0.851014, -0.851014, -0.851014 )     1.10373918
  WF centre and spread    4  ( -0.851014,  0.851014, -0.851014 )     1.10373918
  Sum of centres and spreads (  0.000000,  0.000000,  0.000000 )     4.41495672
 
     74     0.000E+00     0.0000000120        4.4149567159       0.27  <-- CONV
        O_D=      0.0078952 O_OD=      0.5004716 O_TOT=      4.4149567 <-- SPRD
 Delta: O_D=  0.0000000E+00 O_OD=  0.0000000E+00 O_TOT=  0.0000000E+00 <-- DLTA
 ------------------------------------------------------------------------------
 Cycle:     75
  WF centre and spread    1  (  0.851014,  0.851014,  0.851014 )     1.10373918
  WF centre and spread    2  ( -0.851014, -0.851014,  0.851014 )     1.10373918
  WF centre and spread    3  (  0.851014, -0.851014, -0.851014 )     1.10373918
  WF centre and spread    4  ( -0.851014,  0.851014, -0.851014 )     1.10373918
  Sum of centres and spreads (  0.000000,  0.000000,  0.000000 )     4.41495672
 
     75     0.000E+00     0.0000000116        4.4149567159       0.27  <-- CONV
        O_D=      0.0078952 O_OD=      0.5004716 O_TOT=      4.4149567 <-- SPRD
 Delta: O_D=  0.0000000E+00 O_OD=  0.0000000E+00 O_TOT=  0.0000000E+00 <-- DLTA
 ------------------------------------------------------------------------------
 Cycle:     76
  WF centre and spread    1  (  0.851014,  0.851014,  0.851014 )     1.10373918
  WF centre and spread    2  ( -0.851014, -0.851014,  0.851014 )     1.10373918
  WF centre and spread    3  (  0.851014, -0.851014, -0.851014 )     1.10373918
  WF centre and spread    4  ( -0.851014,  0.851014, -0.851014 )     1.10373918
  Sum of centres and spreads (  0.000000,  0.000000,  0.000000 )     4.41495672
 
     76     0.000E+00     0.0000000111        4.4149567159       0.27  <-- CONV
        O_D=      0.0078952 O_OD=      0.5004716 O_TOT=      4.4149567 <-- SPRD
 Delta: O_D=  0.0000000E+00 O_OD=  0.0000000E+00 O_TOT=  0.0000000E+00 <-- DLTA
 ------------------------------------------------------------------------------
 Cycle:     77
  WF centre and spread    1  (  0.851014,  0.851014,  0.851014 )     1.10373918
  WF centre and spread    2  ( -0.851014, -0.851014,  0.851014 )     1.10373918
  WF centre and spread    3  (  0.851014, -0.851014, -0.851014 )     1.10373918
  WF centre and spread    4  ( -0.851014,  0.851014, -0.851014 )     1.10373918
  Sum of centres and spreads (  0.000000,  0.000000,  0.000000 )     4.41495672
 
     77     0.000E+00     0.0000000106        4.4149567159       0.27  <-- CONV
        O_D=      0.0078952 O_OD=      0.5004716 O_TOT=      4.4149567 <-- SPRD
 Delta: O_D=  0.0000000E+00 O_OD=  0.0000000E+00 O_TOT=  0.0000000E+00 <-- DLTA
 ------------------------------------------------------------------------------
 Cycle:     78
  WF centre and spread    1  (  0.851014,  0.851014,  0.851014 )     1.10373918
  WF centre and spread    2  ( -0.851014, -0.851014,  0.851014 )     1.10373918
  WF centre and spread    3  (  0.851014, -0.851014, -0.851014 )     1.10373918
  WF centre and spread    4  ( -0.851014,  0.851014, -0.851014 )     1.10373918
  Sum of centres and spreads (  0.000000,  0.000000,  0.000000 )     4.41495672
 
     78     0.000E+00     0.0000000102        4.4149567159       0.27  <-- CONV
        O_D=      0.0078952 O_OD=      0.5004716 O_TOT=      4.4149567 <-- SPRD
 Delta: O_D=  0.0000000E+00 O_OD=  0.0000000E+00 O_TOT=  0.0000000E+00 <-- DLTA
 ------------------------------------------------------------------------------
 Cycle:     79
  WF centre and spread    1  (  0.851014,  0.851014,  0.851014 )     1.10373918
  WF centre and spread    2  ( -0.851014, -0.851014,  0.851014 )     1.10373918
  WF centre and spread    3  (  0.851014, -0.851014, -0.851014 )     1.10373918
  WF centre and spread    4  ( -0.851014,  0.851014, -0.851014 )     1.10373918
  Sum of centres and spreads (  0.000000,  0.000000,  0.000000 )     4.41495672
 
     79     0.000E+00     0.0000000098        4.4149567159       0.27  <-- CONV
        O_D=      0.0078952 O_OD=      0.5004716 O_TOT=      4.4149567 <-- SPRD
 Delta: O_D=  0.0000000E+00 O_OD=  0.0000000E+00 O_TOT=  0.0000000E+00 <-- DLTA
 ------------------------------------------------------------------------------
 Cycle:     80
  WF centre and spread    1  (  0.851014,  0.851014,  0.851014 )     1.10373918
  WF centre and spread    2  ( -0.851014, -0.851014,  0.851014 )     1.10373918
  WF centre and spread    3  (  0.851014, -0.851014, -0.851014 )     1.10373918
  WF centre and spread    4  ( -0.851014,  0.851014, -0.851014 )     1.10373918
  Sum of centres and spreads (  0.000000,  0.000000,  0.000000 )     4.41495672
 
     80     0.000E+00     0.0000000094        4.4149567159       0.27  <-- CONV
        O_D=      0.0078952 O_OD=      0.5004716 O_TOT=      4.4149567 <-- SPRD
 Delta: O_D=  0.0000000E+00 O_OD=  0.0000000E+00 O_TOT=  0.0000000E+00 <-- DLTA
 ------------------------------------------------------------------------------
 Final State
  WF centre and spread    1  (  0.851014,  0.851014,  0.851014 )     1.10373918
  WF centre and spread    2  ( -0.851014, -0.851014,  0.851014 )     1.10373918
  WF centre and spread    3  (  0.851014, -0.851014, -0.851014 )     1.10373918
  WF centre and spread    4  ( -0.851014,  0.851014, -0.851014 )     1.10373918
  Sum of centres and spreads (  0.000000,  0.000000,  0.000000 )     4.41495672
 
         Spreads (Ang^2)       Omega I      =     3.906589876
        ================       Omega D      =     0.007895246
                               Omega OD     =     0.500471594
    Final Spread (Ang^2)       Omega Total  =     4.414956716
 ------------------------------------------------------------------------------
 Time for wannierise            0.076 (sec)

 Writing checkpoint file wannier90.chk... done

 Total Execution Time           0.098 (sec)

 *===========================================================================*
 |                             TIMING INFORMATION                            |
 *===========================================================================*
 |    Tag                                                Ncalls      Time (s)|
 |---------------------------------------------------------------------------|
 |kmesh: get                                        :         2         0.041|
 |wann: main                                        :         1         0.076|
 *---------------------------------------------------------------------------*
 
 All done: wannier90 exiting
