
.Version 5.6.3  of ABINIT 
.(sequential version, prepared for a x86_64_linux_gcc4.3 computer) 

.Copyright (C) 1998-2008 ABINIT group . 
 ABINIT comes with ABSOLUTELY NO WARRANTY.
 It is free software, and you are welcome to redistribute it
 under certain conditions (GNU General Public License,
 see ~abinit/COPYING or http://www.gnu.org/copyleft/gpl.txt).

 ABINIT is a project of the Universite Catholique de Louvain,
 Corning Inc. and other collaborators, see ~abinit/doc/developers/contributors.txt .
 Please read ~abinit/doc/users/acknowledgments.html for suggested
 acknowledgments of the ABINIT effort.
 For more information, see http://www.abinit.org .

.Starting date : Thu  6 Nov 2008.
  
- input  file    -> /home/gonze/ABINIT/ABINITv5.6.3/test_gcc43/5.6.3-private/tests/wannier90/Input/t01.in
- output file    -> t01.out
- root for input  files -> t01i
- root for output files -> t01o


 Symmetries : space group F-4 3 m (#216); Bravais cF (face-center cubic)
================================================================================
 Values of the parameters that define the memory need of the present run
   intxc =         0  ionmov =         0    iscf =         3 xclevel =         1
  lmnmax =         3   lnmax =         1   mband =         8  mffmem =         1
P  mgfft =        32   mkmem =         8 mpssoang=         2     mpw =      1266
  mqgrid =      3001   natom =         2    nfft =     32768    nkpt =         8
  nloalg =         4  nspden =         1 nspinor =         1  nsppol =         1
    nsym =        24  n1xccc =      2501  ntypat =         2  occopt =         1
================================================================================
P This job should need less than                       8.946 Mbytes of memory.
  Rough estimation (10% accuracy) of disk space for files :
  WF disk file :      1.238 Mbytes ; DEN or POT disk file :      0.252 Mbytes.
================================================================================

 -outvars: echo values of preprocessed input variables --------
     acell    1.0600000000E+01  1.0600000000E+01  1.0600000000E+01 Bohr
       amu    6.97200000E+01  7.49216000E+01
    diemac    1.00000000E+01
      ecut    2.00000000E+01 Hartree
      iscf         3
    istwfk      1    1    1    1    1    1    1    1
       kpt    0.00000000E+00  0.00000000E+00  0.00000000E+00
              0.00000000E+00  0.00000000E+00  5.00000000E-01
              0.00000000E+00  5.00000000E-01  0.00000000E+00
              0.00000000E+00  5.00000000E-01  5.00000000E-01
              5.00000000E-01  0.00000000E+00  0.00000000E+00
              5.00000000E-01  0.00000000E+00  5.00000000E-01
              5.00000000E-01  5.00000000E-01  0.00000000E+00
              5.00000000E-01  5.00000000E-01  5.00000000E-01
P    mkmem         8
     natom         2
     nband         8
     ngfft        32      32      32
      nkpt         8
      nsym        24
    ntypat         2
       occ    2.000000  2.000000  2.000000  2.000000  0.000000  0.000000
              0.000000  0.000000
   prtwant         2
     rprim    0.0000000000E+00  5.0000000000E-01  5.0000000000E-01
              5.0000000000E-01  0.0000000000E+00  5.0000000000E-01
              5.0000000000E-01  5.0000000000E-01  0.0000000000E+00
   spgroup       216
    symrel    1  0  0   0  1  0   0  0  1       0 -1  1   0 -1  0   1 -1  0
             -1  0  0  -1  0  1  -1  1  0       0  1 -1   1  0 -1   0  0 -1
             -1  0  0  -1  1  0  -1  0  1       0 -1  1   1 -1  0   0 -1  0
              1  0  0   0  0  1   0  1  0       0  1 -1   0  0 -1   1  0 -1
             -1  0  1  -1  1  0  -1  0  0       0 -1  0   1 -1  0   0 -1  1
              1  0 -1   0  0 -1   0  1 -1       0  1  0   0  0  1   1  0  0
              1  0 -1   0  1 -1   0  0 -1       0 -1  0   0 -1  1   1 -1  0
             -1  0  1  -1  0  0  -1  1  0       0  1  0   1  0  0   0  0  1
              0  0 -1   0  1 -1   1  0 -1       1 -1  0   0 -1  1   0 -1  0
              0  0  1   1  0  0   0  1  0      -1  1  0  -1  0  0  -1  0  1
              0  0  1   0  1  0   1  0  0       1 -1  0   0 -1  0   0 -1  1
              0  0 -1   1  0 -1   0  1 -1      -1  1  0  -1  0  1  -1  0  0
    tolwfr    1.00000000E-10
     typat    1  2
    useylm         1
       wtk      0.12500    0.12500    0.12500    0.12500    0.12500    0.12500
                0.12500    0.12500
    xangst    0.0000000000E+00  0.0000000000E+00  0.0000000000E+00
              1.4023196028E+00  1.4023196028E+00  1.4023196028E+00
     xcart    0.0000000000E+00  0.0000000000E+00  0.0000000000E+00
              2.6500000000E+00  2.6500000000E+00  2.6500000000E+00
      xred    0.0000000000E+00  0.0000000000E+00  0.0000000000E+00
              2.5000000000E-01  2.5000000000E-01  2.5000000000E-01
     znucl     31.00000   33.00000

================================================================================

 chkinp: Checking input parameters for consistency.

================================================================================
== DATASET  1 ==================================================================

 Real(R)+Recip(G) space primitive vectors, cartesian coordinates (Bohr,Bohr^-1):
 R(1)=  0.0000000  5.3000000  5.3000000  G(1)= -0.0943396  0.0943396  0.0943396
 R(2)=  5.3000000  0.0000000  5.3000000  G(2)=  0.0943396 -0.0943396  0.0943396
 R(3)=  5.3000000  5.3000000  0.0000000  G(3)=  0.0943396  0.0943396 -0.0943396
 Unit cell volume ucvol=  2.9775400E+02 bohr^3
 Angles (23,13,12)=  6.00000000E+01  6.00000000E+01  6.00000000E+01 degrees

 getcut: wavevector=  0.0000  0.0000  0.0000  ngfft=  32  32  32
         ecut(hartree)=     20.000   => boxcut(ratio)=   2.12070

--- Pseudopotential description ------------------------------------------------
- pspini: atom type   1  psp file is /home/gonze/ABINIT/ABINITv5.6.3/test_gcc43/5.6.3-private/tests/Psps_for_tests/31ga.pspnc
- pspatm: opening atomic psp file    /home/gonze/ABINIT/ABINITv5.6.3/test_gcc43/5.6.3-private/tests/Psps_for_tests/31ga.pspnc
  Troullier-Martins psp for element  Ga        Thu Oct 27 17:36:43 EDT 1994
  31.00000   3.00000    940714                znucl, zion, pspdat
    1    1    1    0      2001   0.00000      pspcod,pspxc,lmax,lloc,mmax,r2well
    0   6.570  15.885    0   1.9956558        l,e99.0,e99.9,nproj,rcpsp
   0.00000000   0.00000000   0.00000000   0.00000000     rms, ekb1, ekb2, epsatm
    1   2.122   7.249    1   1.9956558        l,e99.0,e99.9,nproj,rcpsp
   0.00000000   0.00000000   0.00000000   0.00000000     rms, ekb1, ekb2, epsatm
    2.57649862033350    0.14924926558032    2.22766011456380   rchrg,fchrg,qchrg
 pspatm: epsatm=   27.06235248
         --- l  ekb(1:nproj) -->
             1    2.537532
 pspatm: atomic psp has been read  and splines computed

- pspini: atom type   2  psp file is /home/gonze/ABINIT/ABINITv5.6.3/test_gcc43/5.6.3-private/tests/Psps_for_tests/33as.pspnc
- pspatm: opening atomic psp file    /home/gonze/ABINIT/ABINITv5.6.3/test_gcc43/5.6.3-private/tests/Psps_for_tests/33as.pspnc
  Troullier-Martins psp for element  As        Thu Oct 27 17:37:14 EDT 1994
  33.00000   5.00000    940714                znucl, zion, pspdat
    1    1    1    1      2001   0.00000      pspcod,pspxc,lmax,lloc,mmax,r2well
    0   4.772  10.829    1   2.5306160        l,e99.0,e99.9,nproj,rcpsp
   0.00000000   0.00000000   0.00000000   0.00000000     rms, ekb1, ekb2, epsatm
    1   2.745   5.580    0   2.5306160        l,e99.0,e99.9,nproj,rcpsp
   0.00000000   0.00000000   0.00000000   0.00000000     rms, ekb1, ekb2, epsatm
    2.05731715564010    0.36322996461007    2.76014815959125   rchrg,fchrg,qchrg
 pspatm: epsatm=   27.20579911
         --- l  ekb(1:nproj) -->
             0    0.838751
 pspatm: atomic psp has been read  and splines computed

   4.34145213E+02                                ecore*ucvol(ha*bohr**3)
--------------------------------------------------------------------------------

P newkpt: treating      8 bands with npw=    1243 for ikpt=   1
P newkpt: treating      8 bands with npw=    1260 for ikpt=   2
P newkpt: treating      8 bands with npw=    1260 for ikpt=   3
P newkpt: treating      8 bands with npw=    1266 for ikpt=   4
P newkpt: treating      8 bands with npw=    1260 for ikpt=   5
P newkpt: treating      8 bands with npw=    1266 for ikpt=   6
P newkpt: treating      8 bands with npw=    1266 for ikpt=   7
P newkpt: treating      8 bands with npw=    1260 for ikpt=   8

 setup2: Arith. and geom. avg. npw (full set) are    1260.125    1260.105

================================================================================

     iter   Etot(hartree)      deltaE(h)  residm     vres2    diffor    maxfor
 ETOT  1  -10.633606195614    -1.063E+01 2.146E-02 5.387E+01 0.000E+00 0.000E+00
 ETOT  2  -10.649409113551    -1.580E-02 2.986E-03 3.671E+00 0.000E+00 0.000E+00
 ETOT  3  -10.650432410595    -1.023E-03 1.475E-04 2.256E-01 0.000E+00 0.000E+00
 ETOT  4  -10.650479503560    -4.709E-05 6.418E-05 7.669E-03 0.000E+00 0.000E+00
 ETOT  5  -10.650479986517    -4.830E-07 2.966E-06 9.677E-04 1.488E-31 1.488E-31
 ETOT  6  -10.650480092180    -1.057E-07 1.541E-06 7.662E-05 1.488E-31 0.000E+00
 ETOT  7  -10.650480112022    -1.984E-08 7.935E-08 9.050E-06 0.000E+00 0.000E+00
 ETOT  8  -10.650480113060    -1.039E-09 4.100E-08 9.915E-07 1.488E-31 1.488E-31
 ETOT  9  -10.650480113149    -8.870E-11 2.225E-09 1.045E-08 1.488E-31 0.000E+00
 ETOT 10  -10.650480113150    -3.606E-13 1.143E-09 1.473E-10 1.488E-31 1.488E-31
 ETOT 11  -10.650480113149     5.329E-14 9.771E-11 2.261E-12 1.488E-31 0.000E+00

 At SCF step   11   max residual=  9.77E-11 < tolwfr=  1.00E-10 =>converged.

 Cartesian components of stress tensor (hartree/bohr^3)
  sigma(1 1)= -8.13683999E-06  sigma(3 2)=  0.00000000E+00
  sigma(2 2)= -8.13683999E-06  sigma(3 1)=  0.00000000E+00
  sigma(3 3)= -8.13683999E-06  sigma(2 1)=  0.00000000E+00


---------------------------------------------------------------

  Calculation of overlap and call to wannier90 library (beta version)
  to obtain maximally localized wannier functions
  - wannier90.win is a mandatory secondary input
  - wannier90.wout is the output for the library
  - wannier90.amn contains projections
  - wannier90random.amn contains random projections
  - wannier90.mmn contains the overlap
  - wannier90.eig contains the eigenvalues

---------------------------------------------------------------

   mlwfovlp:  you should give k-point in the full brillouin zone
   with explicit k-points (or kptopt=3) and istwfk 1

   mlwfovlp :  mlwfovlp_setup done -
   see wannier90.wout for details.

   mlwfovlp :  mlwfovlp_run completed -
   see wannier90.wout for details.

================================================================================

 ----iterations are completed or convergence reached----

 Mean square residual over all n,k,spin=   6.7011E-11; max=  9.7707E-11
   0.0000  0.0000  0.0000    1  8.92547E-11 kpt; spin; max resid(k); each band:
 2.77E-11 8.93E-11 8.92E-11 8.92E-11 2.16E-11 6.48E-11 6.52E-11 6.58E-11
   0.0000  0.0000  0.5000    1  9.70099E-11 kpt; spin; max resid(k); each band:
 5.77E-11 7.07E-11 8.23E-11 8.23E-11 8.19E-11 9.70E-11 9.70E-11 5.00E-11
   0.0000  0.5000  0.0000    1  9.71953E-11 kpt; spin; max resid(k); each band:
 5.77E-11 7.07E-11 8.23E-11 8.23E-11 8.19E-11 9.69E-11 9.72E-11 4.51E-11
   0.0000  0.5000  0.5000    1  7.70294E-11 kpt; spin; max resid(k); each band:
 7.31E-11 7.07E-11 4.88E-11 4.87E-11 1.22E-11 7.70E-11 1.67E-11 2.86E-11
   0.5000  0.0000  0.0000    1  9.73554E-11 kpt; spin; max resid(k); each band:
 5.77E-11 7.07E-11 8.23E-11 8.23E-11 8.19E-11 9.68E-11 9.74E-11 5.17E-11
   0.5000  0.0000  0.5000    1  7.70289E-11 kpt; spin; max resid(k); each band:
 7.31E-11 7.07E-11 4.88E-11 4.87E-11 1.22E-11 7.70E-11 5.85E-11 6.87E-11
   0.5000  0.5000  0.0000    1  7.70291E-11 kpt; spin; max resid(k); each band:
 7.31E-11 7.07E-11 4.89E-11 4.87E-11 1.22E-11 7.70E-11 6.55E-11 7.25E-11
   0.5000  0.5000  0.5000    1  9.77074E-11 kpt; spin; max resid(k); each band:
 5.77E-11 7.07E-11 8.23E-11 8.23E-11 8.19E-11 9.74E-11 9.77E-11 4.95E-11
 reduced coordinates (array xred) for    2 atoms
       0.000000000000      0.000000000000      0.000000000000
       0.250000000000      0.250000000000      0.250000000000
 rms dE/dt=  0.0000E+00; max dE/dt=  0.0000E+00; dE/dt below (all hartree)
    1       0.000000000000      0.000000000000      0.000000000000
    2       0.000000000000      0.000000000000      0.000000000000

 cartesian coordinates (angstrom) at end:
    1      0.00000000000000     0.00000000000000     0.00000000000000
    2      1.40231960276350     1.40231960276350     1.40231960276350

 cartesian forces (hartree/bohr) at end:
    1     -0.00000000000000    -0.00000000000000    -0.00000000000000
    2     -0.00000000000000    -0.00000000000000    -0.00000000000000
 frms,max,avg= 0.0000000E+00 0.0000000E+00   0.000E+00  0.000E+00  0.000E+00 h/b

 cartesian forces (eV/Angstrom) at end:
    1     -0.00000000000000    -0.00000000000000    -0.00000000000000
    2     -0.00000000000000    -0.00000000000000    -0.00000000000000
 frms,max,avg= 0.0000000E+00 0.0000000E+00   0.000E+00  0.000E+00  0.000E+00 e/A
 length scales= 10.600000000000 10.600000000000 10.600000000000 bohr
              =  5.609278411054  5.609278411054  5.609278411054 angstroms
 prteigrs : about to open file t01o_EIG
 Fermi (or HOMO) energy (hartree) =   0.00265   Average Vxc (hartree)=  -0.34985
 Eigenvalues (hartree) for nkpt=   8  k points:
 kpt#   1, nband=  8, wtk=  0.12500, kpt=  0.0000  0.0000  0.0000 (reduced coord)
  -0.46034   0.00265   0.00265   0.00265   0.02653   0.13217   0.13217   0.13217
 kpt#   2, nband=  8, wtk=  0.12500, kpt=  0.0000  0.0000  0.5000 (reduced coord)
  -0.39755  -0.24124  -0.03438  -0.03438   0.03246   0.15484   0.15484   0.27728
 kpt#   3, nband=  8, wtk=  0.12500, kpt=  0.0000  0.5000  0.0000 (reduced coord)
  -0.39755  -0.24124  -0.03438  -0.03438   0.03246   0.15484   0.15484   0.27728
 kpt#   4, nband=  8, wtk=  0.12500, kpt=  0.0000  0.5000  0.5000 (reduced coord)
  -0.36888  -0.24969  -0.08962  -0.08962   0.03525   0.04570   0.37536   0.37536
 kpt#   5, nband=  8, wtk=  0.12500, kpt=  0.5000  0.0000  0.0000 (reduced coord)
  -0.39755  -0.24124  -0.03438  -0.03438   0.03246   0.15484   0.15484   0.27728
 kpt#   6, nband=  8, wtk=  0.12500, kpt=  0.5000  0.0000  0.5000 (reduced coord)
  -0.36888  -0.24969  -0.08962  -0.08962   0.03525   0.04570   0.37536   0.37536
 kpt#   7, nband=  8, wtk=  0.12500, kpt=  0.5000  0.5000  0.0000 (reduced coord)
  -0.36888  -0.24969  -0.08962  -0.08962   0.03525   0.04570   0.37536   0.37536
 kpt#   8, nband=  8, wtk=  0.12500, kpt=  0.5000  0.5000  0.5000 (reduced coord)
  -0.39755  -0.24124  -0.03438  -0.03438   0.03246   0.15484   0.15484   0.27728
 Total charge density [el/Bohr^3]
,     Maximum=    1.0084E-01  at reduced coord.    0.1563    0.1875    0.5000
,Next maximum=    1.0084E-01  at reduced coord.    0.1875    0.1563    0.5000
,     Minimum=    1.2709E-03  at reduced coord.    0.7500    0.7500    0.7500
,Next minimum=    1.2742E-03  at reduced coord.    0.5000    0.5000    0.5000

--------------------------------------------------------------------------------
 Components of total free energy (in Hartree) :

    Kinetic energy  =  3.17739822709931E+00
    Hartree energy  =  8.82786367677773E-01
    XC energy       = -4.92110654798042E+00
    Ewald energy    = -8.48789573682593E+00
    PspCore energy  =  1.45806676895429E+00
    Loc. psp. energy= -2.88771682137343E+00
    NL   psp  energy=  1.27987629298915E-01
    >>>>>>>>> Etotal= -1.06504801131495E+01

 Other information on the energy :
    Total energy(eV)= -2.89814302652207E+02 ; Band energy (Ha)=  -1.4190333926E+00
--------------------------------------------------------------------------------

 Cartesian components of stress tensor (hartree/bohr^3)
  sigma(1 1)= -8.13683999E-06  sigma(3 2)=  0.00000000E+00
  sigma(2 2)= -8.13683999E-06  sigma(3 1)=  0.00000000E+00
  sigma(3 3)= -8.13683999E-06  sigma(2 1)=  0.00000000E+00

-Cartesian components of stress tensor (GPa)         [Pressure=  2.3939E-01 GPa]
- sigma(1 1)= -2.39394057E-01  sigma(3 2)=  0.00000000E+00
- sigma(2 2)= -2.39394057E-01  sigma(3 1)=  0.00000000E+00
- sigma(3 3)= -2.39394057E-01  sigma(2 1)=  0.00000000E+00

== END DATASET(S) ==============================================================
================================================================================
  
 -outvars: echo values of variables after computation  --------
     acell    1.0600000000E+01  1.0600000000E+01  1.0600000000E+01 Bohr
       amu    6.97200000E+01  7.49216000E+01
    diemac    1.00000000E+01
      ecut    2.00000000E+01 Hartree
    etotal   -1.0650480113E+01
     fcart   -0.0000000000E+00 -0.0000000000E+00 -0.0000000000E+00
             -0.0000000000E+00 -0.0000000000E+00 -0.0000000000E+00
      iscf         3
    istwfk      1    1    1    1    1    1    1    1
       kpt    0.00000000E+00  0.00000000E+00  0.00000000E+00
              0.00000000E+00  0.00000000E+00  5.00000000E-01
              0.00000000E+00  5.00000000E-01  0.00000000E+00
              0.00000000E+00  5.00000000E-01  5.00000000E-01
              5.00000000E-01  0.00000000E+00  0.00000000E+00
              5.00000000E-01  0.00000000E+00  5.00000000E-01
              5.00000000E-01  5.00000000E-01  0.00000000E+00
              5.00000000E-01  5.00000000E-01  5.00000000E-01
P    mkmem         8
     natom         2
     nband         8
     ngfft        32      32      32
      nkpt         8
      nsym        24
    ntypat         2
       occ    2.000000  2.000000  2.000000  2.000000  0.000000  0.000000
              0.000000  0.000000
   prtwant         2
     rprim    0.0000000000E+00  5.0000000000E-01  5.0000000000E-01
              5.0000000000E-01  0.0000000000E+00  5.0000000000E-01
              5.0000000000E-01  5.0000000000E-01  0.0000000000E+00
   spgroup       216
    strten   -8.1368399904E-06 -8.1368399904E-06 -8.1368399904E-06
              0.0000000000E+00  0.0000000000E+00  0.0000000000E+00
    symrel    1  0  0   0  1  0   0  0  1       0 -1  1   0 -1  0   1 -1  0
             -1  0  0  -1  0  1  -1  1  0       0  1 -1   1  0 -1   0  0 -1
             -1  0  0  -1  1  0  -1  0  1       0 -1  1   1 -1  0   0 -1  0
              1  0  0   0  0  1   0  1  0       0  1 -1   0  0 -1   1  0 -1
             -1  0  1  -1  1  0  -1  0  0       0 -1  0   1 -1  0   0 -1  1
              1  0 -1   0  0 -1   0  1 -1       0  1  0   0  0  1   1  0  0
              1  0 -1   0  1 -1   0  0 -1       0 -1  0   0 -1  1   1 -1  0
             -1  0  1  -1  0  0  -1  1  0       0  1  0   1  0  0   0  0  1
              0  0 -1   0  1 -1   1  0 -1       1 -1  0   0 -1  1   0 -1  0
              0  0  1   1  0  0   0  1  0      -1  1  0  -1  0  0  -1  0  1
              0  0  1   0  1  0   1  0  0       1 -1  0   0 -1  0   0 -1  1
              0  0 -1   1  0 -1   0  1 -1      -1  1  0  -1  0  1  -1  0  0
    tolwfr    1.00000000E-10
     typat    1  2
    useylm         1
       wtk      0.12500    0.12500    0.12500    0.12500    0.12500    0.12500
                0.12500    0.12500
    xangst    0.0000000000E+00  0.0000000000E+00  0.0000000000E+00
              1.4023196028E+00  1.4023196028E+00  1.4023196028E+00
     xcart    0.0000000000E+00  0.0000000000E+00  0.0000000000E+00
              2.6500000000E+00  2.6500000000E+00  2.6500000000E+00
      xred    0.0000000000E+00  0.0000000000E+00  0.0000000000E+00
              2.5000000000E-01  2.5000000000E-01  2.5000000000E-01
     znucl     31.00000   33.00000

================================================================================

- Total cpu        time (s,m,h):          9.7        0.16      0.003
- Total wall clock time (s,m,h):          9.7        0.16      0.003

- For major independent code sections, cpu and wall times (sec),
- as well as % of the total time and number of calls 

- routine                 cpu     %       wall     %      number of calls 
-                                                          (-1=no count)
- fourwf(pot)            5.217  54.0      5.042  52.2           3005
- pspini                 0.822   8.5      0.822   8.5              1
- forces                 0.368   3.8      0.368   3.8             11
- projbd                 0.356   3.7      0.391   4.0           4346
- timing timab           0.349   3.6      0.348   3.6             11
- fourwf(den)            0.338   3.5      0.321   3.3            352
- nonlop(apply)          0.319   3.3      0.404   4.2           3005
- invars2                0.299   3.1      0.299   3.1              1
- mkcore                 0.258   2.7      0.262   2.7             13
- vtowfk(ssdiag)         0.143   1.5      0.147   1.5             -1
- getghc-other           0.089   0.9      0.100   1.0             -1
- abinit(2)              0.083   0.9      0.083   0.9              1
- symrhg(no FFT)         0.079   0.8      0.078   0.8             11
- fourdp                 0.071   0.7      0.069   0.7             56
- xc:pot/=fourdp         0.050   0.5      0.053   0.5             12
- 55   others            0.214   2.2      0.220   2.3

- subtotal               9.055  93.7      9.007  93.2

================================================================================

 Calculation completed.
.Delivered    0 WARNINGs and   0 COMMENTs to log file.
+Overall time at end (sec) : cpu=          9.7  wall=          9.7
