 
             +---------------------------------------------------+
             |                                                   |
             |                   WANNIER90                       |
             |                                                   |
             +---------------------------------------------------+
             |                                                   |
             |        Welcome to the Maximally-Localized         |
             |        Generalized Wannier Functions code         |
             |            http://www.wannier.org                 |
             |                                                   |
             |  Authors:                                         |
             |    Arash A. Mostofi   (Imperial College London)   |
             |    Jonathan R. Yates  (University of Cambridge)   |
             |    Young-Su Lee       (KIST, S. Korea)            |
             |                                                   |
             |                                                   |
             |  Please cite                                      |
             |                                                   |
             |  [ref] "Wannier90: A Tool for Obtaining Maximally |
             |         Localised Wannier Functions"              |
             |        A. A. Mostofi, J. R. Yates, Y.-S. Lee,     |
             |        I. Souza, D. Vanderbilt and N. Marzari     |
             |        Comput. Phys. Commun., accepted (2007);    |
             |        www.arxiv.org/abs/0708.0650                |
             |                                                   |
             |  in any publications arising from the use of      |
             |  this code.                                       |
             |                                                   |
             |                                                   |
             |  Wannier90 is based on routines written by        |
             |  Nicola Marzari, Ivo Souza and David Vanderbilt.  |
             |  For the method please cite                       |
             |                                                   |
             |  [ref] "Maximally Localized Generalised Wannier   |
             |         Functions for Composite Energy Bands"     |
             |         N. Marzari and D. Vanderbilt              |
             |         Phys. Rev. B 56 12847 (1997)              |
             |                                                   |
             |  [ref] "Maximally Localized Wannier Functions     |
             |         for Entangled Energy Bands"               |
             |         I. Souza, N. Marzari and D. Vanderbilt    |
             |         Phys. Rev. B 65 035109 (2001)             |
             |                                                   |
             |                                                   |
             | Copyright (c) 1997-2007 J. Yates, A. Mostofi,     |
             |   Y.-S Lee, N. Marzari, I. Souza, D. Vanderbilt   |
             |                                                   |
             |         Release: 1.1        21st Dec 2007         |
             |                                                   |
             | This program is free software; you can            |
             | redistribute it and/or modify it under the terms  |
             | of the GNU General Public License as published by |
             | the Free Software Foundation; either version 2 of |
             | the License, or (at your option) any later version|
             |                                                   |
             | This program is distributed in the hope that it   |
             | will be useful, but WITHOUT ANY WARRANTY; without |
             | even the implied warranty of MERCHANTABILITY or   |
             | FITNESS FOR A PARTICULAR PURPOSE. See the GNU     |
             | General Public License for more details.          |
             |                                                   |
             | You should have received a copy of the GNU General|
             | Public License along with this program; if not,   |
             | write to the Free Software Foundation, Inc.,      |
             | 675 Mass Ave, Cambridge, MA 02139, USA.           |
             |                                                   |
             +---------------------------------------------------+
             |    Execution started on 10Sep2008 at 14:00:57     |
             +---------------------------------------------------+

 Wannier90 is running in LIBRARY MODE

 Setting up k-point neighbours...

 Ignoring <mp_grid> in input file
 Ignoring <unit_cell_cart> in input file
 Ignoring <kpoints> in input file
 Ignoring <atoms_frac> in input file
 
                                    ------
                                    SYSTEM
                                    ------
 
                              Lattice Vectors (Ang)
                    a_1     0.000000   2.804639   2.804639
                    a_2     2.804639   0.000000   2.804639
                    a_3     2.804639   2.804639   0.000000
 
                   Unit Cell Volume:      44.12259  (Ang^3)
 
                        Reciprocal-Space Vectors (Ang^-1)
                    b_1    -1.120141   1.120141   1.120141
                    b_2     1.120141  -1.120141   1.120141
                    b_3     1.120141   1.120141  -1.120141
  
 *----------------------------------------------------------------------------*
 |   Site       Fractional Coordinate          Cartesian Coordinate (Ang)     |
 +----------------------------------------------------------------------------+
 | Ga   1   0.00000   0.00000   0.00000   |    0.00000   0.00000   0.00000    |
 | As   1   0.25000   0.25000   0.25000   |    1.40232   1.40232   1.40232    |
 *----------------------------------------------------------------------------*
  
                                ------------
                                K-POINT GRID
                                ------------
  
             Grid size =  0 x  0 x  0      Total points =    8
  
  
 *---------------------------------- MAIN ------------------------------------*
 |  Number of Wannier Functions               :                 4             |
 |  Number of input Bloch states              :                 4             |
 |  Output verbosity (1=low, 5=high)          :                 1             |
 |  Timing Level (1=low, 5=high)              :                 1             |
 |  Length Unit                               :               Ang             |
 |  Post-processing setup (write *.nnkp)      :                 F             |
 |  Using Gamma-only branch of algorithms     :                 F             |
 *----------------------------------------------------------------------------*
 *------------------------------- WANNIERISE ---------------------------------*
 |  Total number of iterations                :                80             |
 |  Number of CG steps before reset           :                 5             |
 |  Trial step length for line search         :             2.000             |
 |  Convergence tolerence                     :         0.100E-09             |
 |  Convergence window                        :                -1             |
 |  Iterations between writing output         :                 1             |
 |  Iterations between backing up to disk     :               100             |
 |  Write r^2_nm to file                      :                 F             |
 |  Write xyz WF centres to file              :                 F             |
 |  Use guiding centre to control phases      :                 F             |
 *----------------------------------------------------------------------------*
 Time to read parameters        0.001 (sec)

 *---------------------------------- K-MESH ----------------------------------*
 +----------------------------------------------------------------------------+
 |                    Distance to Nearest-Neighbour Shells                    |
 |                    ------------------------------------                    |
 |          Shell             Distance (Ang^-1)          Multiplicity         |
 |          -----             -----------------          ------------         |
 |             1                   0.970071                      8            |
 |             2                   1.120141                      6            |
 |             3                   1.584119                     12            |
 |             4                   1.857544                     24            |
 |             5                   1.940142                      8            |
 |             6                   2.240283                      6            |
 |             7                   2.441292                     24            |
 |             8                   2.504712                     24            |
 |             9                   2.743775                     24            |
 |            10                   2.910213                     32            |
 |            11                   3.168238                     12            |
 |            12                   3.313423                     48            |
 +----------------------------------------------------------------------------+
 | The b-vectors are chosen automatically                                     |
 | The following shells are used:   1                                         |
 +----------------------------------------------------------------------------+
 |                        Shell   # Nearest-Neighbours                        |
 |                        -----   --------------------                        |
 |                          1               8                                 |
 +----------------------------------------------------------------------------+
 | Completeness relation is fully satisfied [Eq. (B1), PRB 56, 12847 (1997)]  |
 +----------------------------------------------------------------------------+
 |                  b_k Vectors (Ang^-1) and Weights (Ang^2)                  |
 |                  ----------------------------------------                  |
 |            No.         b_k(x)      b_k(y)      b_k(z)        w_b           |
 |            ---        --------------------------------     --------        |
 |             1         0.560071    0.560071   -0.560071     0.398496        |
 |             2         0.560071   -0.560071    0.560071     0.398496        |
 |             3        -0.560071    0.560071    0.560071     0.398496        |
 |             4         0.560071    0.560071    0.560071     0.398496        |
 |             5        -0.560071   -0.560071    0.560071     0.398496        |
 |             6        -0.560071    0.560071   -0.560071     0.398496        |
 |             7         0.560071   -0.560071   -0.560071     0.398496        |
 |             8        -0.560071   -0.560071   -0.560071     0.398496        |
 +----------------------------------------------------------------------------+
 |                           b_k Directions (Ang^-1)                          |
 |                           -----------------------                          |
 |            No.           x           y           z                         |
 |            ---        --------------------------------                     |
 |             1         0.560071    0.560071   -0.560071                     |
 |             2         0.560071   -0.560071    0.560071                     |
 |             3        -0.560071    0.560071    0.560071                     |
 |             4         0.560071    0.560071    0.560071                     |
 +----------------------------------------------------------------------------+
  
 Time to write kmesh            0.013 (sec)

 Finished setting up k-point neighbours.

 Returning to pw2wannier90 at 14:00:57 

 Resuming Wannier90 at 14:01:01 

 Ignoring <mp_grid> in input file
 Ignoring <unit_cell_cart> in input file
 Ignoring <kpoints> in input file
 Ignoring <atoms_frac> in input file
 
                                    ------
                                    SYSTEM
                                    ------
 
                              Lattice Vectors (Ang)
                    a_1     0.000000   2.804639   2.804639
                    a_2     2.804639   0.000000   2.804639
                    a_3     2.804639   2.804639   0.000000
 
                   Unit Cell Volume:      44.12259  (Ang^3)
 
                        Reciprocal-Space Vectors (Ang^-1)
                    b_1    -1.120141   1.120141   1.120141
                    b_2     1.120141  -1.120141   1.120141
                    b_3     1.120141   1.120141  -1.120141
  
 *----------------------------------------------------------------------------*
 |   Site       Fractional Coordinate          Cartesian Coordinate (Ang)     |
 +----------------------------------------------------------------------------+
 | Ga   1   0.00000   0.00000   0.00000   |    0.00000   0.00000   0.00000    |
 | As   1   0.25000   0.25000   0.25000   |    1.40232   1.40232   1.40232    |
 *----------------------------------------------------------------------------*
  
                                ------------
                                K-POINT GRID
                                ------------
  
             Grid size =  0 x  0 x  0      Total points =    8
  
  
 *---------------------------------- MAIN ------------------------------------*
 |  Number of Wannier Functions               :                 4             |
 |  Number of input Bloch states              :                 4             |
 |  Output verbosity (1=low, 5=high)          :                 1             |
 |  Timing Level (1=low, 5=high)              :                 1             |
 |  Length Unit                               :               Ang             |
 |  Post-processing setup (write *.nnkp)      :                 F             |
 |  Using Gamma-only branch of algorithms     :                 F             |
 *----------------------------------------------------------------------------*
 *------------------------------- WANNIERISE ---------------------------------*
 |  Total number of iterations                :                80             |
 |  Number of CG steps before reset           :                 5             |
 |  Trial step length for line search         :             2.000             |
 |  Convergence tolerence                     :         0.100E-09             |
 |  Convergence window                        :                -1             |
 |  Iterations between writing output         :                 1             |
 |  Iterations between backing up to disk     :               100             |
 |  Write r^2_nm to file                      :                 F             |
 |  Write xyz WF centres to file              :                 F             |
 |  Use guiding centre to control phases      :                 F             |
 *----------------------------------------------------------------------------*
 Time to read parameters        0.001 (sec)

 *---------------------------------- K-MESH ----------------------------------*
 +----------------------------------------------------------------------------+
 |                    Distance to Nearest-Neighbour Shells                    |
 |                    ------------------------------------                    |
 |          Shell             Distance (Ang^-1)          Multiplicity         |
 |          -----             -----------------          ------------         |
 |             1                   0.970071                      8            |
 |             2                   1.120141                      6            |
 |             3                   1.584119                     12            |
 |             4                   1.857544                     24            |
 |             5                   1.940142                      8            |
 |             6                   2.240283                      6            |
 |             7                   2.441292                     24            |
 |             8                   2.504712                     24            |
 |             9                   2.743775                     24            |
 |            10                   2.910213                     32            |
 |            11                   3.168238                     12            |
 |            12                   3.313423                     48            |
 +----------------------------------------------------------------------------+
 | The b-vectors are chosen automatically                                     |
 | The following shells are used:   1                                         |
 +----------------------------------------------------------------------------+
 |                        Shell   # Nearest-Neighbours                        |
 |                        -----   --------------------                        |
 |                          1               8                                 |
 +----------------------------------------------------------------------------+
 | Completeness relation is fully satisfied [Eq. (B1), PRB 56, 12847 (1997)]  |
 +----------------------------------------------------------------------------+
 |                  b_k Vectors (Ang^-1) and Weights (Ang^2)                  |
 |                  ----------------------------------------                  |
 |            No.         b_k(x)      b_k(y)      b_k(z)        w_b           |
 |            ---        --------------------------------     --------        |
 |             1         0.560071    0.560071   -0.560071     0.398496        |
 |             2         0.560071   -0.560071    0.560071     0.398496        |
 |             3        -0.560071    0.560071    0.560071     0.398496        |
 |             4         0.560071    0.560071    0.560071     0.398496        |
 |             5        -0.560071   -0.560071    0.560071     0.398496        |
 |             6        -0.560071    0.560071   -0.560071     0.398496        |
 |             7         0.560071   -0.560071   -0.560071     0.398496        |
 |             8        -0.560071   -0.560071   -0.560071     0.398496        |
 +----------------------------------------------------------------------------+
 |                           b_k Directions (Ang^-1)                          |
 |                           -----------------------                          |
 |            No.           x           y           z                         |
 |            ---        --------------------------------                     |
 |             1         0.560071    0.560071   -0.560071                     |
 |             2         0.560071   -0.560071    0.560071                     |
 |             3        -0.560071    0.560071    0.560071                     |
 |             4         0.560071    0.560071    0.560071                     |
 +----------------------------------------------------------------------------+
  
 Time to get kmesh              0.013 (sec)
 Time to project overlaps       0.000 (sec)
 
 *------------------------------- WANNIERISE ---------------------------------*
 +--------------------------------------------------------------------+<-- CONV
 | Iter  Delta Spread     RMS Gradient      Spread (Ang^2)      Time  |<-- CONV
 +--------------------------------------------------------------------+<-- CONV
 
 ------------------------------------------------------------------------------
 Initial State
  WF centre and spread    1  ( -0.100594,  0.064336, -0.462301 )    10.33095788
  WF centre and spread    2  ( -0.249285, -0.597563, -0.020913 )    10.48028321
  WF centre and spread    3  (  0.231260,  0.560422,  1.010423 )     9.56954828
  WF centre and spread    4  ( -0.461678, -0.820125, -0.223849 )    10.56577962
  Sum of centres and spreads ( -0.580297, -0.792930,  0.303360 )    40.94656898
 
      0     0.409E+02     0.0000000000       40.9465689807       4.68  <-- CONV
        O_D=     30.7406899 O_OD=      6.2029495 O_TOT=     40.9465690 <-- SPRD
 ------------------------------------------------------------------------------
 Cycle:      1
  WF centre and spread    1  ( -0.312505,  0.106394, -0.178916 )     6.47127013
  WF centre and spread    2  ( -0.071898, -0.191503, -0.278870 )     8.41547024
  WF centre and spread    3  (  0.117124,  0.557903,  0.814121 )     8.36719123
  WF centre and spread    4  ( -0.258427, -1.153812, -0.464391 )     7.43018968
  Sum of centres and spreads ( -0.525707, -0.681019, -0.108056 )    30.68412129
 
      1    -0.103E+02    11.0116529278       30.6841212876       4.69  <-- CONV
        O_D=     20.7364784 O_OD=      5.9447134 O_TOT=     30.6841213 <-- SPRD
 Delta: O_D= -0.1000421E+02 O_OD= -0.2582362E+00 O_TOT= -0.1026245E+02 <-- DLTA
 ------------------------------------------------------------------------------
 Cycle:      2
  WF centre and spread    1  ( -0.391522,  0.057665, -0.019282 )     5.48723054
  WF centre and spread    2  (  0.093623, -0.272823, -0.138050 )     7.26137564
  WF centre and spread    3  ( -0.033751, -0.002266,  0.476723 )     8.29108277
  WF centre and spread    4  ( -0.172577, -1.426188, -0.425210 )     6.12426322
  Sum of centres and spreads ( -0.504227, -1.643612, -0.105819 )    27.16395216
 
      2    -0.352E+01     8.8871214131       27.1639521567       4.69  <-- CONV
        O_D=     17.3483126 O_OD=      5.8127101 O_TOT=     27.1639522 <-- SPRD
 Delta: O_D= -0.3388166E+01 O_OD= -0.1320033E+00 O_TOT= -0.3520169E+01 <-- DLTA
 ------------------------------------------------------------------------------
 Cycle:      3
  WF centre and spread    1  ( -0.343225,  0.181997, -0.094617 )     4.69688666
  WF centre and spread    2  (  0.177432,  0.137364, -0.198931 )     5.79434455
  WF centre and spread    3  ( -0.032167, -0.109122,  0.556239 )     6.77385054
  WF centre and spread    4  ( -0.233057, -1.055453, -0.306922 )     5.12637786
  Sum of centres and spreads ( -0.431017, -0.845214, -0.044231 )    22.39145961
 
      3    -0.477E+01     6.7892381259       22.3914596127       4.69  <-- CONV
        O_D=     12.4671940 O_OD=      5.9213361 O_TOT=     22.3914596 <-- SPRD
 Delta: O_D= -0.4881119E+01 O_OD=  0.1086261E+00 O_TOT= -0.4772493E+01 <-- DLTA
 ------------------------------------------------------------------------------
 Cycle:      4
  WF centre and spread    1  ( -0.368537,  0.193622, -0.203611 )     4.73389998
  WF centre and spread    2  ( -0.044883,  0.381599, -0.260402 )     5.99528703
  WF centre and spread    3  (  0.018448, -0.082075,  0.705520 )     5.82519587
  WF centre and spread    4  (  0.068987, -0.939955, -0.301834 )     3.96775861
  Sum of centres and spreads ( -0.325986, -0.446809, -0.060326 )    20.52214149
 
      4    -0.187E+01     7.6722586286       20.5221414932       4.69  <-- CONV
        O_D=     10.6194907 O_OD=      5.8997212 O_TOT=     20.5221415 <-- SPRD
 Delta: O_D= -0.1847703E+01 O_OD= -0.2161488E-01 O_TOT= -0.1869318E+01 <-- DLTA
 ------------------------------------------------------------------------------
 Cycle:      5
  WF centre and spread    1  ( -0.418609,  0.158777, -0.295123 )     4.86298323
  WF centre and spread    2  (  0.320613,  0.017834, -0.538873 )     5.69422586
  WF centre and spread    3  (  0.158122, -0.117742,  0.782766 )     5.48931499
  WF centre and spread    4  (  0.229428, -0.917037, -0.387035 )     3.83208260
  Sum of centres and spreads (  0.289553, -0.858168, -0.438264 )    19.87860668
 
      5    -0.644E+00     8.5242780851       19.8786066777       4.69  <-- CONV
        O_D=     10.0316812 O_OD=      5.8439959 O_TOT=     19.8786067 <-- SPRD
 Delta: O_D= -0.5878095E+00 O_OD= -0.5572531E-01 O_TOT= -0.6435348E+00 <-- DLTA
 ------------------------------------------------------------------------------
 Cycle:      6
  WF centre and spread    1  ( -0.471980,  0.178750, -0.228609 )     4.49166909
  WF centre and spread    2  (  0.325910,  0.000282, -0.564399 )     5.07862991
  WF centre and spread    3  (  0.185914, -0.167331,  0.829267 )     5.34232655
  WF centre and spread    4  (  0.450428, -0.734132, -0.579600 )     3.93879938
  Sum of centres and spreads (  0.490272, -0.722431, -0.543341 )    18.85142492
 
      6    -0.103E+01     4.8837960895       18.8514249178       4.69  <-- CONV
        O_D=      9.1426964 O_OD=      5.7057990 O_TOT=     18.8514249 <-- SPRD
 Delta: O_D= -0.8889849E+00 O_OD= -0.1381969E+00 O_TOT= -0.1027182E+01 <-- DLTA
 ------------------------------------------------------------------------------
 Cycle:      7
  WF centre and spread    1  ( -0.453882,  0.234287, -0.120733 )     4.12118391
  WF centre and spread    2  (  0.341379,  0.022223, -0.571330 )     4.76165560
  WF centre and spread    3  (  0.180875, -0.103959,  0.783484 )     5.10993442
  WF centre and spread    4  (  0.396016, -0.775693, -0.594166 )     3.13384773
  Sum of centres and spreads (  0.464388, -0.623142, -0.502746 )    17.12662166
 
      7    -0.172E+01     7.9684099891       17.1266216592       4.69  <-- CONV
        O_D=      7.4700612 O_OD=      5.6536310 O_TOT=     17.1266217 <-- SPRD
 Delta: O_D= -0.1672635E+01 O_OD= -0.5216806E-01 O_TOT= -0.1724803E+01 <-- DLTA
 ------------------------------------------------------------------------------
 Cycle:      8
  WF centre and spread    1  ( -0.311971,  0.287492,  0.221319 )     3.84752660
  WF centre and spread    2  (  0.377103,  0.052196, -0.623433 )     4.16547047
  WF centre and spread    3  (  0.180594, -0.050895,  0.724011 )     4.15859990
  WF centre and spread    4  (  0.512826, -0.847841, -0.639283 )     2.51150919
  Sum of centres and spreads (  0.758552, -0.559048, -0.317386 )    14.68310617
 
      8    -0.244E+01     3.5710810050       14.6831061692       4.69  <-- CONV
        O_D=      5.1470799 O_OD=      5.5330968 O_TOT=     14.6831062 <-- SPRD
 Delta: O_D= -0.2322981E+01 O_OD= -0.1205342E+00 O_TOT= -0.2443515E+01 <-- DLTA
 ------------------------------------------------------------------------------
 Cycle:      9
  WF centre and spread    1  ( -0.283983,  0.299575,  0.210648 )     3.19914502
  WF centre and spread    2  (  0.447852,  0.099049, -0.720219 )     4.33686844
  WF centre and spread    3  (  0.156295, -0.062107,  0.705158 )     3.58192427
  WF centre and spread    4  (  0.581199, -0.862924, -0.698491 )     2.47553116
  Sum of centres and spreads (  0.901363, -0.526406, -0.502905 )    13.59346889
 
      9    -0.109E+01     3.4395204877       13.5934688918       4.69  <-- CONV
        O_D=      4.1296759 O_OD=      5.4608634 O_TOT=     13.5934689 <-- SPRD
 Delta: O_D= -0.1017404E+01 O_OD= -0.7223336E-01 O_TOT= -0.1089637E+01 <-- DLTA
 ------------------------------------------------------------------------------
 Cycle:     10
  WF centre and spread    1  ( -0.289842,  0.277923,  0.221166 )     3.14646183
  WF centre and spread    2  (  0.387504,  0.092444, -0.739856 )     3.80188876
  WF centre and spread    3  (  0.134119, -0.091339,  0.716791 )     3.51542551
  WF centre and spread    4  (  0.522825, -0.842404, -0.673354 )     2.59263995
  Sum of centres and spreads (  0.754606, -0.563376, -0.475254 )    13.05641605
 
     10    -0.537E+00     6.1972730205       13.0564160538       4.69  <-- CONV
        O_D=      3.6309382 O_OD=      5.4225483 O_TOT=     13.0564161 <-- SPRD
 Delta: O_D= -0.4987377E+00 O_OD= -0.3831512E-01 O_TOT= -0.5370528E+00 <-- DLTA
 ------------------------------------------------------------------------------
 Cycle:     11
  WF centre and spread    1  (  0.007879,  0.407468,  0.128526 )     2.93067317
  WF centre and spread    2  (  0.392627,  0.011164, -0.756266 )     3.35558288
  WF centre and spread    3  (  0.107077, -0.122325,  0.753027 )     3.15168287
  WF centre and spread    4  (  0.521799, -0.644117, -0.672143 )     2.48018298
  Sum of centres and spreads (  1.029382, -0.347811, -0.546856 )    11.91812191
 
     11    -0.114E+01     2.6214208539       11.9181219069       4.69  <-- CONV
        O_D=      2.7221187 O_OD=      5.1930737 O_TOT=     11.9181219 <-- SPRD
 Delta: O_D= -0.9088195E+00 O_OD= -0.2294746E+00 O_TOT= -0.1138294E+01 <-- DLTA
 ------------------------------------------------------------------------------
 Cycle:     12
  WF centre and spread    1  ( -0.079584,  0.411714,  0.182663 )     2.59846549
  WF centre and spread    2  (  0.400769,  0.022539, -0.743279 )     3.25280696
  WF centre and spread    3  (  0.077774, -0.149967,  0.752035 )     3.12201690
  WF centre and spread    4  (  0.492385, -0.569983, -0.683849 )     2.45728829
  Sum of centres and spreads (  0.891344, -0.285697, -0.492430 )    11.43057763
 
     12    -0.488E+00     6.4251422777       11.4305776309       4.69  <-- CONV
        O_D=      2.2842021 O_OD=      5.1434460 O_TOT=     11.4305776 <-- SPRD
 Delta: O_D= -0.4379166E+00 O_OD= -0.4962770E-01 O_TOT= -0.4875443E+00 <-- DLTA
 ------------------------------------------------------------------------------
 Cycle:     13
  WF centre and spread    1  ( -0.091878,  0.440216,  0.183149 )     2.53434156
  WF centre and spread    2  (  0.346948,  0.092084, -0.722255 )     3.11220106
  WF centre and spread    3  (  0.074290, -0.131078,  0.727656 )     2.91773316
  WF centre and spread    4  (  0.560370, -0.645551, -0.632891 )     2.34619354
  Sum of centres and spreads (  0.889730, -0.244329, -0.444342 )    10.91046932
 
     13    -0.520E+00     1.8896927017       10.9104693226       4.69  <-- CONV
        O_D=      1.8633754 O_OD=      5.0441644 O_TOT=     10.9104693 <-- SPRD
 Delta: O_D= -0.4208267E+00 O_OD= -0.9928159E-01 O_TOT= -0.5201083E+00 <-- DLTA
 ------------------------------------------------------------------------------
 Cycle:     14
  WF centre and spread    1  ( -0.013214,  0.514207,  0.174403 )     2.43670863
  WF centre and spread    2  (  0.231140,  0.068844, -0.605164 )     3.32055718
  WF centre and spread    3  (  0.062257, -0.094189,  0.697812 )     2.53912066
  WF centre and spread    4  (  0.566356, -0.641778, -0.663846 )     2.32496834
  Sum of centres and spreads (  0.846539, -0.152916, -0.396794 )    10.62135482
 
     14    -0.289E+00     1.7482948446       10.6213548199       4.69  <-- CONV
        O_D=      1.7340459 O_OD=      4.8843794 O_TOT=     10.6213548 <-- SPRD
 Delta: O_D= -0.1293295E+00 O_OD= -0.1597850E+00 O_TOT= -0.2891145E+00 <-- DLTA
 ------------------------------------------------------------------------------
 Cycle:     15
  WF centre and spread    1  (  0.102959,  0.467042,  0.236816 )     2.50853661
  WF centre and spread    2  (  0.242116, -0.006762, -0.690450 )     2.76944625
  WF centre and spread    3  (  0.042648, -0.118664,  0.712299 )     2.52936839
  WF centre and spread    4  (  0.501155, -0.521604, -0.665625 )     2.38602371
  Sum of centres and spreads (  0.888878, -0.179988, -0.406960 )    10.19337495
 
     15    -0.428E+00    12.1022104106       10.1933749541       4.69  <-- CONV
        O_D=      1.2651255 O_OD=      4.9253199 O_TOT=     10.1933750 <-- SPRD
 Delta: O_D= -0.4689204E+00 O_OD=  0.4094052E-01 O_TOT= -0.4279799E+00 <-- DLTA
 ------------------------------------------------------------------------------
 Cycle:     16
  WF centre and spread    1  (  0.093600,  0.451222,  0.251768 )     2.38237910
  WF centre and spread    2  (  0.192763,  0.005980, -0.582012 )     2.70680206
  WF centre and spread    3  (  0.045191, -0.108695,  0.721597 )     2.40769167
  WF centre and spread    4  (  0.534698, -0.503761, -0.690067 )     2.34103558
  Sum of centres and spreads (  0.866252, -0.155254, -0.298714 )     9.83790841
 
     16    -0.355E+00     1.6878343307        9.8379084078       4.69  <-- CONV
        O_D=      1.0125864 O_OD=      4.8223925 O_TOT=      9.8379084 <-- SPRD
 Delta: O_D= -0.2525391E+00 O_OD= -0.1029274E+00 O_TOT= -0.3554665E+00 <-- DLTA
 ------------------------------------------------------------------------------
 Cycle:     17
  WF centre and spread    1  (  0.064506,  0.452085,  0.227658 )     2.27838778
  WF centre and spread    2  (  0.149635, -0.019206, -0.536490 )     2.58402599
  WF centre and spread    3  (  0.081382, -0.039890,  0.723234 )     2.22998742
  WF centre and spread    4  (  0.501524, -0.521007, -0.646770 )     2.28793202
  Sum of centres and spreads (  0.797048, -0.128016, -0.232368 )     9.38033321
 
     17    -0.458E+00     1.1944824016        9.3803332057       4.70  <-- CONV
        O_D=      0.7234830 O_OD=      4.6539207 O_TOT=      9.3803332 <-- SPRD
 Delta: O_D= -0.2891035E+00 O_OD= -0.1684717E+00 O_TOT= -0.4575752E+00 <-- DLTA
 ------------------------------------------------------------------------------
 Cycle:     18
  WF centre and spread    1  ( -0.015976,  0.509245,  0.163590 )     2.21485047
  WF centre and spread    2  (  0.066183, -0.001601, -0.537462 )     2.47950502
  WF centre and spread    3  (  0.100258,  0.026329,  0.725380 )     2.16989660
  WF centre and spread    4  (  0.507540, -0.496067, -0.675775 )     2.16624415
  Sum of centres and spreads (  0.658006,  0.037905, -0.324268 )     9.03049624
 
     18    -0.350E+00     1.1472131906        9.0304962368       4.70  <-- CONV
        O_D=      0.5851891 O_OD=      4.4423776 O_TOT=      9.0304962 <-- SPRD
 Delta: O_D= -0.1382938E+00 O_OD= -0.2115431E+00 O_TOT= -0.3498370E+00 <-- DLTA
 ------------------------------------------------------------------------------
 Cycle:     19
  WF centre and spread    1  ( -0.040135,  0.501551,  0.154988 )     2.17522364
  WF centre and spread    2  ( -0.230240,  0.170645, -0.627547 )     2.83362673
  WF centre and spread    3  (  0.116015,  0.108241,  0.703538 )     2.20468399
  WF centre and spread    4  (  0.551191, -0.546920, -0.700712 )     2.02525571
  Sum of centres and spreads (  0.396831,  0.233517, -0.469733 )     9.23879007
 
     19     0.208E+00     1.1492031711        9.2387900707       4.70  <-- CONV
        O_D=      1.0683284 O_OD=      4.1675322 O_TOT=      9.2387901 <-- SPRD
 Delta: O_D=  0.4831393E+00 O_OD= -0.2748454E+00 O_TOT=  0.2082938E+00 <-- DLTA
 ------------------------------------------------------------------------------
 Cycle:     20
  WF centre and spread    1  (  0.002400,  0.444574,  0.215494 )     2.18068920
  WF centre and spread    2  ( -0.202744,  0.117959, -0.553996 )     2.33744221
  WF centre and spread    3  (  0.120127,  0.110561,  0.698926 )     2.16507301
  WF centre and spread    4  (  0.560921, -0.554624, -0.705490 )     1.97409144
  Sum of centres and spreads (  0.480704,  0.118470, -0.345066 )     8.65729586
 
     20    -0.581E+00     2.8451304483        8.6572958585       4.70  <-- CONV
        O_D=      0.5753471 O_OD=      4.0790192 O_TOT=      8.6572959 <-- SPRD
 Delta: O_D= -0.4929813E+00 O_OD= -0.8851296E-01 O_TOT= -0.5814942E+00 <-- DLTA
 ------------------------------------------------------------------------------
 Cycle:     21
  WF centre and spread    1  (  0.027484,  0.411645,  0.269734 )     2.04371240
  WF centre and spread    2  ( -0.289308,  0.133434, -0.488505 )     2.16583473
  WF centre and spread    3  (  0.122186,  0.115364,  0.688259 )     2.07936861
  WF centre and spread    4  (  0.601424, -0.602346, -0.731239 )     1.83326109
  Sum of centres and spreads (  0.461786,  0.058097, -0.261751 )     8.12217682
 
     21    -0.535E+00     1.4131280257        8.1221768243       4.70  <-- CONV
        O_D=      0.2973700 O_OD=      3.8218773 O_TOT=      8.1221768 <-- SPRD
 Delta: O_D= -0.2779771E+00 O_OD= -0.2571419E+00 O_TOT= -0.5351190E+00 <-- DLTA
 ------------------------------------------------------------------------------
 Cycle:     22
  WF centre and spread    1  (  0.065272,  0.308192,  0.441348 )     1.99183011
  WF centre and spread    2  ( -0.639573,  0.443859, -0.530372 )     2.11804805
  WF centre and spread    3  (  0.089430,  0.101537,  0.679340 )     2.06318405
  WF centre and spread    4  (  0.761998, -0.765836, -0.828757 )     1.46281141
  Sum of centres and spreads (  0.277128,  0.087752, -0.238441 )     7.63587362
 
     22    -0.486E+00     0.7858779322        7.6358736216       4.70  <-- CONV
        O_D=      0.5153654 O_OD=      3.1175787 O_TOT=      7.6358736 <-- SPRD
 Delta: O_D=  0.2179954E+00 O_OD= -0.7042986E+00 O_TOT= -0.4863032E+00 <-- DLTA
 ------------------------------------------------------------------------------
 Cycle:     23
  WF centre and spread    1  (  0.096917,  0.294718,  0.489809 )     1.88599022
  WF centre and spread    2  ( -0.730766,  0.552173, -0.606668 )     1.78575879
  WF centre and spread    3  (  0.015486,  0.026803,  0.711454 )     1.95796197
  WF centre and spread    4  (  0.795541, -0.789079, -0.836596 )     1.31696006
  Sum of centres and spreads (  0.177177,  0.084614, -0.242000 )     6.94667103
 
     23    -0.689E+00     1.6201006551        6.9466710330       4.70  <-- CONV
        O_D=      0.1675056 O_OD=      2.7762359 O_TOT=      6.9466710 <-- SPRD
 Delta: O_D= -0.3478597E+00 O_OD= -0.3413429E+00 O_TOT= -0.6892026E+00 <-- DLTA
 ------------------------------------------------------------------------------
 Cycle:     24
  WF centre and spread    1  (  0.147531,  0.251690,  0.639122 )     1.84338529
  WF centre and spread    2  ( -0.823690,  0.727167, -0.735657 )     1.57460185
  WF centre and spread    3  ( -0.084224, -0.077206,  0.749758 )     1.92302542
  WF centre and spread    4  (  0.844252, -0.833241, -0.848661 )     1.17698410
  Sum of centres and spreads (  0.083868,  0.068410, -0.195437 )     6.51799666
 
     24    -0.429E+00     0.8570799650        6.5179966573       4.70  <-- CONV
        O_D=      0.2607122 O_OD=      2.2543549 O_TOT=      6.5179967 <-- SPRD
 Delta: O_D=  0.9320658E-01 O_OD= -0.5218810E+00 O_TOT= -0.4286744E+00 <-- DLTA
 ------------------------------------------------------------------------------
 Cycle:     25
  WF centre and spread    1  (  0.224099,  0.255488,  0.791241 )     1.81371857
  WF centre and spread    2  ( -0.833905,  0.819634, -0.826965 )     1.39387664
  WF centre and spread    3  ( -0.222560, -0.224579,  0.795309 )     1.86026249
  WF centre and spread    4  (  0.842554, -0.846213, -0.841819 )     1.21537983
  Sum of centres and spreads (  0.010187,  0.004330, -0.082234 )     6.28323753
 
     25    -0.235E+00     1.0604634211        6.2832375283       4.70  <-- CONV
        O_D=      0.2705202 O_OD=      2.0097878 O_TOT=      6.2832375 <-- SPRD
 Delta: O_D=  0.9807960E-02 O_OD= -0.2445671E+00 O_TOT= -0.2347591E+00 <-- DLTA
 ------------------------------------------------------------------------------
 Cycle:     26
  WF centre and spread    1  (  0.308861,  0.325206,  0.819629 )     1.78336180
  WF centre and spread    2  ( -0.813514,  0.817535, -0.840684 )     1.28036057
  WF centre and spread    3  ( -0.320139, -0.325471,  0.810555 )     1.80503449
  WF centre and spread    4  (  0.823585, -0.836113, -0.831014 )     1.25782194
  Sum of centres and spreads ( -0.001207, -0.018844, -0.041515 )     6.12657879
 
     26    -0.157E+00     1.1317826329        6.1265787948       4.70  <-- CONV
        O_D=      0.1441129 O_OD=      1.9795364 O_TOT=      6.1265788 <-- SPRD
 Delta: O_D= -0.1264073E+00 O_OD= -0.3025147E-01 O_TOT= -0.1566587E+00 <-- DLTA
 ------------------------------------------------------------------------------
 Cycle:     27
  WF centre and spread    1  (  0.425113,  0.438987,  0.814263 )     1.73527312
  WF centre and spread    2  ( -0.800438,  0.799685, -0.828096 )     1.24151812
  WF centre and spread    3  ( -0.433928, -0.436537,  0.811509 )     1.73106713
  WF centre and spread    4  (  0.814064, -0.828759, -0.823616 )     1.26421763
  Sum of centres and spreads (  0.004812, -0.026624, -0.025939 )     5.97207600
 
     27    -0.155E+00     0.9665732238        5.9720760034       4.70  <-- CONV
        O_D=      0.0750987 O_OD=      1.8940478 O_TOT=      5.9720760 <-- SPRD
 Delta: O_D= -0.6901420E-01 O_OD= -0.8548859E-01 O_TOT= -0.1545028E+00 <-- DLTA
 ------------------------------------------------------------------------------
 Cycle:     28
  WF centre and spread    1  (  0.586987,  0.601415,  0.812984 )     1.65065334
  WF centre and spread    2  ( -0.799867,  0.790886, -0.803721 )     1.30608551
  WF centre and spread    3  ( -0.592969, -0.585066,  0.810991 )     1.62244795
  WF centre and spread    4  (  0.820078, -0.832752, -0.824492 )     1.24815164
  Sum of centres and spreads (  0.014230, -0.025517, -0.004237 )     5.82733844
 
     28    -0.145E+00     0.8460753370        5.8273384423       4.70  <-- CONV
        O_D=      0.1238285 O_OD=      1.7005804 O_TOT=      5.8273384 <-- SPRD
 Delta: O_D=  0.4872977E-01 O_OD= -0.1934673E+00 O_TOT= -0.1447376E+00 <-- DLTA
 ------------------------------------------------------------------------------
 Cycle:     29
  WF centre and spread    1  (  0.796217,  0.795985,  0.843199 )     1.31430656
  WF centre and spread    2  ( -0.846757,  0.844348, -0.842987 )     1.29472131
  WF centre and spread    3  ( -0.804999, -0.803369,  0.842765 )     1.31496180
  WF centre and spread    4  (  0.842495, -0.846137, -0.846065 )     1.17202273
  Sum of centres and spreads ( -0.013044, -0.009174, -0.003088 )     5.09601239
 
     29    -0.731E+00     1.0111172807        5.0960123899       4.70  <-- CONV
        O_D=      0.2994886 O_OD=      0.7935943 O_TOT=      5.0960124 <-- SPRD
 Delta: O_D=  0.1756601E+00 O_OD= -0.9069862E+00 O_TOT= -0.7313261E+00 <-- DLTA
 ------------------------------------------------------------------------------
 Cycle:     30
  WF centre and spread    1  (  0.840520,  0.845342,  0.835645 )     1.15598644
  WF centre and spread    2  ( -0.848956,  0.841844, -0.846098 )     1.28894443
  WF centre and spread    3  ( -0.843655, -0.846776,  0.841975 )     1.17083096
  WF centre and spread    4  (  0.835085, -0.836757, -0.852328 )     1.16680595
  Sum of centres and spreads ( -0.017006,  0.003652, -0.020806 )     4.78256777
 
     30    -0.313E+00     1.2156452374        4.7825677694       4.70  <-- CONV
        O_D=      0.1743981 O_OD=      0.6052402 O_TOT=      4.7825678 <-- SPRD
 Delta: O_D= -0.1250905E+00 O_OD= -0.1883541E+00 O_TOT= -0.3134446E+00 <-- DLTA
 ------------------------------------------------------------------------------
 Cycle:     31
  WF centre and spread    1  (  0.839227,  0.844877,  0.832503 )     1.14390003
  WF centre and spread    2  ( -0.846527,  0.839824, -0.845246 )     1.18818878
  WF centre and spread    3  ( -0.839157, -0.841963,  0.839969 )     1.15400851
  WF centre and spread    4  (  0.832843, -0.834097, -0.853204 )     1.15053244
  Sum of centres and spreads ( -0.013614,  0.008641, -0.025978 )     4.63662975
 
     31    -0.146E+00     0.8650119143        4.6366297530       4.70  <-- CONV
        O_D=      0.0248659 O_OD=      0.6088344 O_TOT=      4.6366298 <-- SPRD
 Delta: O_D= -0.1495322E+00 O_OD=  0.3594185E-02 O_TOT= -0.1459380E+00 <-- DLTA
 ------------------------------------------------------------------------------
 Cycle:     32
  WF centre and spread    1  (  0.841110,  0.844398,  0.835429 )     1.13870909
  WF centre and spread    2  ( -0.847778,  0.842991, -0.846276 )     1.16498682
  WF centre and spread    3  ( -0.839347, -0.841466,  0.841994 )     1.14561531
  WF centre and spread    4  (  0.837095, -0.837788, -0.852391 )     1.13942991
  Sum of centres and spreads ( -0.008921,  0.008135, -0.021245 )     4.58874112
 
     32    -0.479E-01     0.4652040275        4.5887411176       4.70  <-- CONV
        O_D=      0.0146584 O_OD=      0.5711532 O_TOT=      4.5887411 <-- SPRD
 Delta: O_D= -0.1020751E-01 O_OD= -0.3768113E-01 O_TOT= -0.4788864E-01 <-- DLTA
 ------------------------------------------------------------------------------
 Cycle:     33
  WF centre and spread    1  (  0.846456,  0.845946,  0.842991 )     1.13657789
  WF centre and spread    2  ( -0.846870,  0.846674, -0.847159 )     1.14268236
  WF centre and spread    3  ( -0.844087, -0.844437,  0.845981 )     1.13733568
  WF centre and spread    4  (  0.844778, -0.844459, -0.848610 )     1.12894176
  Sum of centres and spreads (  0.000277,  0.003725, -0.006796 )     4.54553769
 
     33    -0.432E-01     0.3423921446        4.5455376910       4.71  <-- CONV
        O_D=      0.0268102 O_OD=      0.5157980 O_TOT=      4.5455377 <-- SPRD
 Delta: O_D=  0.1215185E-01 O_OD= -0.5535528E-01 O_TOT= -0.4320343E-01 <-- DLTA
 ------------------------------------------------------------------------------
 Cycle:     34
  WF centre and spread    1  (  0.848105,  0.846399,  0.846927 )     1.13475506
  WF centre and spread    2  ( -0.843318,  0.845761, -0.846030 )     1.12859838
  WF centre and spread    3  ( -0.846471, -0.845436,  0.846915 )     1.13313100
  WF centre and spread    4  (  0.846965, -0.846358, -0.845622 )     1.12804925
  Sum of centres and spreads (  0.005280,  0.000365,  0.002190 )     4.52453368
 
     34    -0.210E-01     0.3139842255        4.5245336810       4.71  <-- CONV
        O_D=      0.0131395 O_OD=      0.5084647 O_TOT=      4.5245337 <-- SPRD
 Delta: O_D= -0.1367073E-01 O_OD= -0.7333280E-02 O_TOT= -0.2100401E-01 <-- DLTA
 ------------------------------------------------------------------------------
 Cycle:     35
  WF centre and spread    1  (  0.847410,  0.846297,  0.846574 )     1.12986773
  WF centre and spread    2  ( -0.844622,  0.846207, -0.846279 )     1.12570646
  WF centre and spread    3  ( -0.846467, -0.846072,  0.846390 )     1.12936142
  WF centre and spread    4  (  0.846570, -0.846309, -0.846027 )     1.12664034
  Sum of centres and spreads (  0.002892,  0.000123,  0.000659 )     4.51157595
 
     35    -0.130E-01     0.1847481248        4.5115759548       4.71  <-- CONV
        O_D=      0.0085438 O_OD=      0.5001026 O_TOT=      4.5115760 <-- SPRD
 Delta: O_D= -0.4595659E-02 O_OD= -0.8362067E-02 O_TOT= -0.1295773E-01 <-- DLTA
 ------------------------------------------------------------------------------
 Cycle:     36
  WF centre and spread    1  (  0.847025,  0.846236,  0.846415 )     1.12859231
  WF centre and spread    2  ( -0.845275,  0.846395, -0.846392 )     1.12633245
  WF centre and spread    3  ( -0.846508, -0.846311,  0.846241 )     1.12874005
  WF centre and spread    4  (  0.846387, -0.846266, -0.846221 )     1.12663172
  Sum of centres and spreads (  0.001629,  0.000054,  0.000043 )     4.51029654
 
     36    -0.128E-02     0.0650163231        4.5102965374       4.71  <-- CONV
        O_D=      0.0082916 O_OD=      0.4990754 O_TOT=      4.5102965 <-- SPRD
 Delta: O_D= -0.2522104E-03 O_OD= -0.1027207E-02 O_TOT= -0.1279417E-02 <-- DLTA
 ------------------------------------------------------------------------------
 Cycle:     37
  WF centre and spread    1  (  0.846671,  0.846170,  0.846299 )     1.12772305
  WF centre and spread    2  ( -0.845804,  0.846502, -0.846440 )     1.12700648
  WF centre and spread    3  ( -0.846518, -0.846422,  0.846159 )     1.12828184
  WF centre and spread    4  (  0.846245, -0.846226, -0.846369 )     1.12679248
  Sum of centres and spreads (  0.000595,  0.000024, -0.000351 )     4.50980385
 
     37    -0.493E-03     0.0405238117        4.5098038464       4.71  <-- CONV
        O_D=      0.0080917 O_OD=      0.4987827 O_TOT=      4.5098038 <-- SPRD
 Delta: O_D= -0.1999559E-03 O_OD= -0.2927352E-03 O_TOT= -0.4926911E-03 <-- DLTA
 ------------------------------------------------------------------------------
 Cycle:     38
  WF centre and spread    1  (  0.846486,  0.846178,  0.846287 )     1.12745703
  WF centre and spread    2  ( -0.846080,  0.846489, -0.846398 )     1.12733228
  WF centre and spread    3  ( -0.846493, -0.846385,  0.846198 )     1.12790236
  WF centre and spread    4  (  0.846227, -0.846242, -0.846407 )     1.12703992
  Sum of centres and spreads (  0.000140,  0.000040, -0.000320 )     4.50973158
 
     38    -0.723E-04     0.0118439182        4.5097315842       4.71  <-- CONV
        O_D=      0.0080884 O_OD=      0.4987136 O_TOT=      4.5097316 <-- SPRD
 Delta: O_D= -0.3228900E-05 O_OD= -0.6903325E-04 O_TOT= -0.7226215E-04 <-- DLTA
 ------------------------------------------------------------------------------
 Cycle:     39
  WF centre and spread    1  (  0.846444,  0.846201,  0.846302 )     1.12744352
  WF centre and spread    2  ( -0.846142,  0.846459, -0.846372 )     1.12736766
  WF centre and spread    3  ( -0.846457, -0.846362,  0.846225 )     1.12776839
  WF centre and spread    4  (  0.846245, -0.846265, -0.846390 )     1.12714809
  Sum of centres and spreads (  0.000091,  0.000033, -0.000235 )     4.50972765
 
     39    -0.393E-05     0.0034052956        4.5097276534       4.71  <-- CONV
        O_D=      0.0080883 O_OD=      0.4987099 O_TOT=      4.5097277 <-- SPRD
 Delta: O_D= -0.1682400E-06 O_OD= -0.3762590E-05 O_TOT= -0.3930830E-05 <-- DLTA
 ------------------------------------------------------------------------------
 Cycle:     40
  WF centre and spread    1  (  0.846399,  0.846235,  0.846322 )     1.12743941
  WF centre and spread    2  ( -0.846208,  0.846418, -0.846343 )     1.12739530
  WF centre and spread    3  ( -0.846411, -0.846337,  0.846258 )     1.12761599
  WF centre and spread    4  (  0.846271, -0.846294, -0.846364 )     1.12727491
  Sum of centres and spreads (  0.000052,  0.000021, -0.000127 )     4.50972561
 
     40    -0.204E-05     0.0024162579        4.5097256128       4.71  <-- CONV
        O_D=      0.0080876 O_OD=      0.4987084 O_TOT=      4.5097256 <-- SPRD
 Delta: O_D= -0.6190852E-06 O_OD= -0.1421538E-05 O_TOT= -0.2040623E-05 <-- DLTA
 ------------------------------------------------------------------------------
 Cycle:     41
  WF centre and spread    1  (  0.846383,  0.846251,  0.846328 )     1.12744000
  WF centre and spread    2  ( -0.846230,  0.846398, -0.846335 )     1.12740091
  WF centre and spread    3  ( -0.846392, -0.846332,  0.846271 )     1.12756533
  WF centre and spread    4  (  0.846282, -0.846304, -0.846353 )     1.12731850
  Sum of centres and spreads (  0.000042,  0.000014, -0.000089 )     4.50972474
 
     41    -0.873E-06     0.0014945499        4.5097247402       4.71  <-- CONV
        O_D=      0.0080875 O_OD=      0.4987077 O_TOT=      4.5097247 <-- SPRD
 Delta: O_D= -0.1070696E-06 O_OD= -0.7655355E-06 O_TOT= -0.8726051E-06 <-- DLTA
 ------------------------------------------------------------------------------
 Cycle:     42
  WF centre and spread    1  (  0.846363,  0.846271,  0.846332 )     1.12743953
  WF centre and spread    2  ( -0.846258,  0.846376, -0.846327 )     1.12740929
  WF centre and spread    3  ( -0.846370, -0.846326,  0.846286 )     1.12750890
  WF centre and spread    4  (  0.846295, -0.846315, -0.846341 )     1.12736662
  Sum of centres and spreads (  0.000030,  0.000006, -0.000049 )     4.50972434
 
     42    -0.404E-06     0.0010755862        4.5097243362       4.71  <-- CONV
        O_D=      0.0080874 O_OD=      0.4987074 O_TOT=      4.5097243 <-- SPRD
 Delta: O_D= -0.1138866E-06 O_OD= -0.2900357E-06 O_TOT= -0.4039223E-06 <-- DLTA
 ------------------------------------------------------------------------------
 Cycle:     43
  WF centre and spread    1  (  0.846333,  0.846302,  0.846335 )     1.12743609
  WF centre and spread    2  ( -0.846302,  0.846341, -0.846316 )     1.12742509
  WF centre and spread    3  ( -0.846337, -0.846316,  0.846310 )     1.12742971
  WF centre and spread    4  (  0.846314, -0.846328, -0.846324 )     1.12743310
  Sum of centres and spreads (  0.000008, -0.000002,  0.000005 )     4.50972399
 
     43    -0.344E-06     0.0007841144        4.5097239918       4.71  <-- CONV
        O_D=      0.0080874 O_OD=      0.4987071 O_TOT=      4.5097240 <-- SPRD
 Delta: O_D= -0.4211149E-07 O_OD= -0.3023499E-06 O_TOT= -0.3444614E-06 <-- DLTA
 ------------------------------------------------------------------------------
 Cycle:     44
  WF centre and spread    1  (  0.846325,  0.846310,  0.846332 )     1.12743245
  WF centre and spread    2  ( -0.846314,  0.846332, -0.846316 )     1.12743126
  WF centre and spread    3  ( -0.846329, -0.846316,  0.846317 )     1.12741898
  WF centre and spread    4  (  0.846318, -0.846328, -0.846322 )     1.12744125
  Sum of centres and spreads ( -0.000001, -0.000001,  0.000010 )     4.50972394
 
     44    -0.480E-07     0.0003144001        4.5097239438       4.71  <-- CONV
        O_D=      0.0080874 O_OD=      0.4987070 O_TOT=      4.5097239 <-- SPRD
 Delta: O_D=  0.3289379E-07 O_OD= -0.8086810E-07 O_TOT= -0.4797431E-07 <-- DLTA
 ------------------------------------------------------------------------------
 Cycle:     45
  WF centre and spread    1  (  0.846323,  0.846313,  0.846329 )     1.12743097
  WF centre and spread    2  ( -0.846318,  0.846329, -0.846317 )     1.12743274
  WF centre and spread    3  ( -0.846327, -0.846317,  0.846318 )     1.12742034
  WF centre and spread    4  (  0.846319, -0.846326, -0.846322 )     1.12743988
  Sum of centres and spreads ( -0.000002, -0.000001,  0.000008 )     4.50972394
 
     45    -0.710E-08     0.0001449069        4.5097239367       4.71  <-- CONV
        O_D=      0.0080874 O_OD=      0.4987070 O_TOT=      4.5097239 <-- SPRD
 Delta: O_D=  0.3176072E-08 O_OD= -0.1027828E-07 O_TOT= -0.7102209E-08 <-- DLTA
 ------------------------------------------------------------------------------
 Cycle:     46
  WF centre and spread    1  (  0.846322,  0.846316,  0.846326 )     1.12742996
  WF centre and spread    2  ( -0.846320,  0.846327, -0.846319 )     1.12743332
  WF centre and spread    3  ( -0.846325, -0.846319,  0.846319 )     1.12742363
  WF centre and spread    4  (  0.846320, -0.846324, -0.846322 )     1.12743702
  Sum of centres and spreads ( -0.000003, -0.000001,  0.000004 )     4.50972393
 
     46    -0.360E-08     0.0001033443        4.5097239331       4.71  <-- CONV
        O_D=      0.0080874 O_OD=      0.4987070 O_TOT=      4.5097239 <-- SPRD
 Delta: O_D= -0.4059310E-08 O_OD=  0.4581099E-09 O_TOT= -0.3601201E-08 <-- DLTA
 ------------------------------------------------------------------------------
 Cycle:     47
  WF centre and spread    1  (  0.846322,  0.846318,  0.846325 )     1.12743031
  WF centre and spread    2  ( -0.846320,  0.846325, -0.846320 )     1.12743250
  WF centre and spread    3  ( -0.846324, -0.846320,  0.846320 )     1.12742604
  WF centre and spread    4  (  0.846320, -0.846324, -0.846322 )     1.12743508
  Sum of centres and spreads ( -0.000002,  0.000000,  0.000003 )     4.50972393
 
     47    -0.100E-08     0.0000467436        4.5097239321       4.71  <-- CONV
        O_D=      0.0080874 O_OD=      0.4987070 O_TOT=      4.5097239 <-- SPRD
 Delta: O_D= -0.3282171E-08 O_OD=  0.2278690E-08 O_TOT= -0.1003480E-08 <-- DLTA
 ------------------------------------------------------------------------------
 Cycle:     48
  WF centre and spread    1  (  0.846322,  0.846319,  0.846324 )     1.12743063
  WF centre and spread    2  ( -0.846320,  0.846324, -0.846320 )     1.12743179
  WF centre and spread    3  ( -0.846323, -0.846320,  0.846320 )     1.12742823
  WF centre and spread    4  (  0.846321, -0.846323, -0.846322 )     1.12743329
  Sum of centres and spreads ( -0.000001,  0.000000,  0.000002 )     4.50972393
 
     48    -0.389E-09     0.0000328647        4.5097239317       4.71  <-- CONV
        O_D=      0.0080874 O_OD=      0.4987070 O_TOT=      4.5097239 <-- SPRD
 Delta: O_D= -0.1280211E-08 O_OD=  0.8909559E-09 O_TOT= -0.3892549E-09 <-- DLTA
 ------------------------------------------------------------------------------
 Cycle:     49
  WF centre and spread    1  (  0.846322,  0.846321,  0.846322 )     1.12743102
  WF centre and spread    2  ( -0.846321,  0.846323, -0.846321 )     1.12743093
  WF centre and spread    3  ( -0.846322, -0.846321,  0.846321 )     1.12743097
  WF centre and spread    4  (  0.846321, -0.846322, -0.846322 )     1.12743101
  Sum of centres and spreads (  0.000000,  0.000000,  0.000000 )     4.50972393
 
     49    -0.325E-09     0.0000260883        4.5097239314       4.72  <-- CONV
        O_D=      0.0080874 O_OD=      0.4987070 O_TOT=      4.5097239 <-- SPRD
 Delta: O_D=  0.2912090E-09 O_OD= -0.6164329E-09 O_TOT= -0.3252243E-09 <-- DLTA
 ------------------------------------------------------------------------------
 Cycle:     50
  WF centre and spread    1  (  0.846322,  0.846321,  0.846322 )     1.12743108
  WF centre and spread    2  ( -0.846321,  0.846322, -0.846322 )     1.12743079
  WF centre and spread    3  ( -0.846322, -0.846322,  0.846321 )     1.12743159
  WF centre and spread    4  (  0.846321, -0.846322, -0.846322 )     1.12743047
  Sum of centres and spreads (  0.000000,  0.000000,  0.000000 )     4.50972393
 
     50    -0.734E-10     0.0000126121        4.5097239313       4.72  <-- CONV
        O_D=      0.0080874 O_OD=      0.4987070 O_TOT=      4.5097239 <-- SPRD
 Delta: O_D=  0.1056252E-08 O_OD= -0.1129653E-08 O_TOT= -0.7340084E-10 <-- DLTA
 ------------------------------------------------------------------------------
 Cycle:     51
  WF centre and spread    1  (  0.846322,  0.846321,  0.846322 )     1.12743105
  WF centre and spread    2  ( -0.846321,  0.846322, -0.846322 )     1.12743085
  WF centre and spread    3  ( -0.846322, -0.846322,  0.846321 )     1.12743148
  WF centre and spread    4  (  0.846321, -0.846322, -0.846322 )     1.12743056
  Sum of centres and spreads (  0.000000,  0.000000,  0.000000 )     4.50972393
 
     51    -0.646E-11     0.0000040748        4.5097239313       4.72  <-- CONV
        O_D=      0.0080874 O_OD=      0.4987070 O_TOT=      4.5097239 <-- SPRD
 Delta: O_D=  0.8820847E-11 O_OD= -0.1528072E-10 O_TOT= -0.6458833E-11 <-- DLTA
 ------------------------------------------------------------------------------
 Cycle:     52
  WF centre and spread    1  (  0.846322,  0.846321,  0.846322 )     1.12743101
  WF centre and spread    2  ( -0.846321,  0.846322, -0.846322 )     1.12743091
  WF centre and spread    3  ( -0.846322, -0.846322,  0.846321 )     1.12743132
  WF centre and spread    4  (  0.846321, -0.846322, -0.846322 )     1.12743069
  Sum of centres and spreads (  0.000000,  0.000000,  0.000000 )     4.50972393
 
     52    -0.282E-11     0.0000029227        4.5097239313       4.72  <-- CONV
        O_D=      0.0080874 O_OD=      0.4987070 O_TOT=      4.5097239 <-- SPRD
 Delta: O_D= -0.7546094E-10 O_OD=  0.7264128E-10 O_TOT= -0.2820855E-11 <-- DLTA
 ------------------------------------------------------------------------------
 Cycle:     53
  WF centre and spread    1  (  0.846322,  0.846321,  0.846322 )     1.12743100
  WF centre and spread    2  ( -0.846321,  0.846322, -0.846322 )     1.12743093
  WF centre and spread    3  ( -0.846322, -0.846322,  0.846321 )     1.12743124
  WF centre and spread    4  (  0.846322, -0.846322, -0.846322 )     1.12743075
  Sum of centres and spreads (  0.000000,  0.000000,  0.000000 )     4.50972393
 
     53    -0.139E-11     0.0000020017        4.5097239313       4.72  <-- CONV
        O_D=      0.0080874 O_OD=      0.4987070 O_TOT=      4.5097239 <-- SPRD
 Delta: O_D= -0.2365835E-10 O_OD=  0.2227152E-10 O_TOT= -0.1386447E-11 <-- DLTA
 ------------------------------------------------------------------------------
 Cycle:     54
  WF centre and spread    1  (  0.846322,  0.846321,  0.846322 )     1.12743099
  WF centre and spread    2  ( -0.846321,  0.846322, -0.846322 )     1.12743096
  WF centre and spread    3  ( -0.846322, -0.846322,  0.846322 )     1.12743113
  WF centre and spread    4  (  0.846322, -0.846322, -0.846322 )     1.12743085
  Sum of centres and spreads (  0.000000,  0.000000,  0.000000 )     4.50972393
 
     54    -0.792E-12     0.0000014237        4.5097239313       4.72  <-- CONV
        O_D=      0.0080874 O_OD=      0.4987070 O_TOT=      4.5097239 <-- SPRD
 Delta: O_D= -0.2126807E-10 O_OD=  0.2047618E-10 O_TOT= -0.7922552E-12 <-- DLTA
 ------------------------------------------------------------------------------
 Cycle:     55
  WF centre and spread    1  (  0.846322,  0.846322,  0.846322 )     1.12743097
  WF centre and spread    2  ( -0.846322,  0.846322, -0.846322 )     1.12743100
  WF centre and spread    3  ( -0.846322, -0.846322,  0.846322 )     1.12743100
  WF centre and spread    4  (  0.846322, -0.846322, -0.846322 )     1.12743096
  Sum of centres and spreads (  0.000000,  0.000000,  0.000000 )     4.50972393
 
     55    -0.596E-12     0.0000010344        4.5097239313       4.72  <-- CONV
        O_D=      0.0080874 O_OD=      0.4987070 O_TOT=      4.5097239 <-- SPRD
 Delta: O_D=  0.2308743E-12 O_OD= -0.8271717E-12 O_TOT= -0.5959677E-12 <-- DLTA
 ------------------------------------------------------------------------------
 Cycle:     56
  WF centre and spread    1  (  0.846322,  0.846322,  0.846322 )     1.12743097
  WF centre and spread    2  ( -0.846322,  0.846322, -0.846322 )     1.12743101
  WF centre and spread    3  ( -0.846322, -0.846322,  0.846322 )     1.12743098
  WF centre and spread    4  (  0.846322, -0.846322, -0.846322 )     1.12743097
  Sum of centres and spreads (  0.000000,  0.000000,  0.000000 )     4.50972393
 
     56    -0.941E-13     0.0000004431        4.5097239313       4.72  <-- CONV
        O_D=      0.0080874 O_OD=      0.4987070 O_TOT=      4.5097239 <-- SPRD
 Delta: O_D=  0.9753051E-11 O_OD= -0.9846957E-11 O_TOT= -0.9414691E-13 <-- DLTA
 ------------------------------------------------------------------------------
 Cycle:     57
  WF centre and spread    1  (  0.846322,  0.846322,  0.846322 )     1.12743097
  WF centre and spread    2  ( -0.846322,  0.846322, -0.846322 )     1.12743101
  WF centre and spread    3  ( -0.846322, -0.846322,  0.846322 )     1.12743098
  WF centre and spread    4  (  0.846322, -0.846322, -0.846322 )     1.12743097
  Sum of centres and spreads (  0.000000,  0.000000,  0.000000 )     4.50972393
 
     57    -0.711E-14     0.0000001883        4.5097239313       4.72  <-- CONV
        O_D=      0.0080874 O_OD=      0.4987070 O_TOT=      4.5097239 <-- SPRD
 Delta: O_D=  0.9195440E-12 O_OD= -0.9269807E-12 O_TOT= -0.7105427E-14 <-- DLTA
 ------------------------------------------------------------------------------
 Cycle:     58
  WF centre and spread    1  (  0.846322,  0.846322,  0.846322 )     1.12743097
  WF centre and spread    2  ( -0.846322,  0.846322, -0.846322 )     1.12743101
  WF centre and spread    3  ( -0.846322, -0.846322,  0.846322 )     1.12743098
  WF centre and spread    4  (  0.846322, -0.846322, -0.846322 )     1.12743097
  Sum of centres and spreads (  0.000000,  0.000000,  0.000000 )     4.50972393
 
     58    -0.115E-13     0.0000001552        4.5097239313       4.72  <-- CONV
        O_D=      0.0080874 O_OD=      0.4987070 O_TOT=      4.5097239 <-- SPRD
 Delta: O_D=  0.2458825E-11 O_OD= -0.2470746E-11 O_TOT= -0.1154632E-13 <-- DLTA
 ------------------------------------------------------------------------------
 Cycle:     59
  WF centre and spread    1  (  0.846322,  0.846322,  0.846322 )     1.12743097
  WF centre and spread    2  ( -0.846322,  0.846322, -0.846322 )     1.12743101
  WF centre and spread    3  ( -0.846322, -0.846322,  0.846322 )     1.12743098
  WF centre and spread    4  (  0.846322, -0.846322, -0.846322 )     1.12743097
  Sum of centres and spreads (  0.000000,  0.000000,  0.000000 )     4.50972393
 
     59    -0.178E-14     0.0000001086        4.5097239313       4.72  <-- CONV
        O_D=      0.0080874 O_OD=      0.4987070 O_TOT=      4.5097239 <-- SPRD
 Delta: O_D= -0.6861872E-13 O_OD=  0.6666889E-13 O_TOT= -0.1776357E-14 <-- DLTA
 ------------------------------------------------------------------------------
 Cycle:     60
  WF centre and spread    1  (  0.846322,  0.846322,  0.846322 )     1.12743097
  WF centre and spread    2  ( -0.846322,  0.846322, -0.846322 )     1.12743101
  WF centre and spread    3  ( -0.846322, -0.846322,  0.846322 )     1.12743098
  WF centre and spread    4  (  0.846322, -0.846322, -0.846322 )     1.12743097
  Sum of centres and spreads (  0.000000,  0.000000,  0.000000 )     4.50972393
 
     60    -0.266E-14     0.0000000894        4.5097239313       4.72  <-- CONV
        O_D=      0.0080874 O_OD=      0.4987070 O_TOT=      4.5097239 <-- SPRD
 Delta: O_D= -0.1026818E-12 O_OD=  0.1006417E-12 O_TOT= -0.2664535E-14 <-- DLTA
 ------------------------------------------------------------------------------
 Cycle:     61
  WF centre and spread    1  (  0.846322,  0.846322,  0.846322 )     1.12743097
  WF centre and spread    2  ( -0.846322,  0.846322, -0.846322 )     1.12743101
  WF centre and spread    3  ( -0.846322, -0.846322,  0.846322 )     1.12743098
  WF centre and spread    4  (  0.846322, -0.846322, -0.846322 )     1.12743097
  Sum of centres and spreads (  0.000000,  0.000000,  0.000000 )     4.50972393
 
     61    -0.178E-14     0.0000000768        4.5097239313       4.72  <-- CONV
        O_D=      0.0080874 O_OD=      0.4987070 O_TOT=      4.5097239 <-- SPRD
 Delta: O_D= -0.1141205E-12 O_OD=  0.1122435E-12 O_TOT= -0.1776357E-14 <-- DLTA
 ------------------------------------------------------------------------------
 Cycle:     62
  WF centre and spread    1  (  0.846322,  0.846322,  0.846322 )     1.12743097
  WF centre and spread    2  ( -0.846322,  0.846322, -0.846322 )     1.12743101
  WF centre and spread    3  ( -0.846322, -0.846322,  0.846322 )     1.12743099
  WF centre and spread    4  (  0.846322, -0.846322, -0.846322 )     1.12743097
  Sum of centres and spreads (  0.000000,  0.000000,  0.000000 )     4.50972393
 
     62     0.000E+00     0.0000000747        4.5097239313       4.72  <-- CONV
        O_D=      0.0080874 O_OD=      0.4987070 O_TOT=      4.5097239 <-- SPRD
 Delta: O_D= -0.9857393E-13 O_OD=  0.9792167E-13 O_TOT=  0.0000000E+00 <-- DLTA
 ------------------------------------------------------------------------------
 Cycle:     63
  WF centre and spread    1  (  0.846322,  0.846322,  0.846322 )     1.12743097
  WF centre and spread    2  ( -0.846322,  0.846322, -0.846322 )     1.12743101
  WF centre and spread    3  ( -0.846322, -0.846322,  0.846322 )     1.12743099
  WF centre and spread    4  (  0.846322, -0.846322, -0.846322 )     1.12743097
  Sum of centres and spreads (  0.000000,  0.000000,  0.000000 )     4.50972393
 
     63    -0.355E-14     0.0000000707        4.5097239313       4.72  <-- CONV
        O_D=      0.0080874 O_OD=      0.4987070 O_TOT=      4.5097239 <-- SPRD
 Delta: O_D= -0.1149705E-12 O_OD=  0.1122435E-12 O_TOT= -0.3552714E-14 <-- DLTA
 ------------------------------------------------------------------------------
 Cycle:     64
  WF centre and spread    1  (  0.846322,  0.846322,  0.846322 )     1.12743097
  WF centre and spread    2  ( -0.846322,  0.846322, -0.846322 )     1.12743100
  WF centre and spread    3  ( -0.846322, -0.846322,  0.846322 )     1.12743099
  WF centre and spread    4  (  0.846322, -0.846322, -0.846322 )     1.12743097
  Sum of centres and spreads (  0.000000,  0.000000,  0.000000 )     4.50972393
 
     64    -0.888E-15     0.0000000564        4.5097239313       4.72  <-- CONV
        O_D=      0.0080874 O_OD=      0.4987070 O_TOT=      4.5097239 <-- SPRD
 Delta: O_D= -0.5483461E-13 O_OD=  0.5323519E-13 O_TOT= -0.8881784E-15 <-- DLTA
 ------------------------------------------------------------------------------
 Cycle:     65
  WF centre and spread    1  (  0.846322,  0.846322,  0.846322 )     1.12743097
  WF centre and spread    2  ( -0.846322,  0.846322, -0.846322 )     1.12743100
  WF centre and spread    3  ( -0.846322, -0.846322,  0.846322 )     1.12743099
  WF centre and spread    4  (  0.846322, -0.846322, -0.846322 )     1.12743097
  Sum of centres and spreads (  0.000000,  0.000000,  0.000000 )     4.50972393
 
     65    -0.888E-15     0.0000000431        4.5097239313       4.72  <-- CONV
        O_D=      0.0080874 O_OD=      0.4987070 O_TOT=      4.5097239 <-- SPRD
 Delta: O_D=  0.2793078E-13 O_OD= -0.2808864E-13 O_TOT= -0.8881784E-15 <-- DLTA
 ------------------------------------------------------------------------------
 Cycle:     66
  WF centre and spread    1  (  0.846322,  0.846322,  0.846322 )     1.12743097
  WF centre and spread    2  ( -0.846322,  0.846322, -0.846322 )     1.12743100
  WF centre and spread    3  ( -0.846322, -0.846322,  0.846322 )     1.12743099
  WF centre and spread    4  (  0.846322, -0.846322, -0.846322 )     1.12743097
  Sum of centres and spreads (  0.000000,  0.000000,  0.000000 )     4.50972393
 
     66     0.000E+00     0.0000000404        4.5097239313       4.72  <-- CONV
        O_D=      0.0080874 O_OD=      0.4987070 O_TOT=      4.5097239 <-- SPRD
 Delta: O_D=  0.4768408E-13 O_OD= -0.4790612E-13 O_TOT=  0.0000000E+00 <-- DLTA
 ------------------------------------------------------------------------------
 Cycle:     67
  WF centre and spread    1  (  0.846322,  0.846322,  0.846322 )     1.12743097
  WF centre and spread    2  ( -0.846322,  0.846322, -0.846322 )     1.12743100
  WF centre and spread    3  ( -0.846322, -0.846322,  0.846322 )     1.12743099
  WF centre and spread    4  (  0.846322, -0.846322, -0.846322 )     1.12743097
  Sum of centres and spreads (  0.000000,  0.000000,  0.000000 )     4.50972393
 
     67     0.888E-15     0.0000000364        4.5097239313       4.72  <-- CONV
        O_D=      0.0080874 O_OD=      0.4987070 O_TOT=      4.5097239 <-- SPRD
 Delta: O_D=  0.1034763E-13 O_OD= -0.9103829E-14 O_TOT=  0.8881784E-15 <-- DLTA
 ------------------------------------------------------------------------------
 Cycle:     68
  WF centre and spread    1  (  0.846322,  0.846322,  0.846322 )     1.12743097
  WF centre and spread    2  ( -0.846322,  0.846322, -0.846322 )     1.12743100
  WF centre and spread    3  ( -0.846322, -0.846322,  0.846322 )     1.12743099
  WF centre and spread    4  (  0.846322, -0.846322, -0.846322 )     1.12743096
  Sum of centres and spreads (  0.000000,  0.000000,  0.000000 )     4.50972393
 
     68    -0.888E-15     0.0000000355        4.5097239313       4.73  <-- CONV
        O_D=      0.0080874 O_OD=      0.4987070 O_TOT=      4.5097239 <-- SPRD
 Delta: O_D=  0.6390895E-13 O_OD= -0.6528111E-13 O_TOT= -0.8881784E-15 <-- DLTA
 ------------------------------------------------------------------------------
 Cycle:     69
  WF centre and spread    1  (  0.846322,  0.846322,  0.846322 )     1.12743097
  WF centre and spread    2  ( -0.846322,  0.846322, -0.846322 )     1.12743100
  WF centre and spread    3  ( -0.846322, -0.846322,  0.846322 )     1.12743099
  WF centre and spread    4  (  0.846322, -0.846322, -0.846322 )     1.12743096
  Sum of centres and spreads (  0.000000,  0.000000,  0.000000 )     4.50972393
 
     69     0.000E+00     0.0000000304        4.5097239313       4.73  <-- CONV
        O_D=      0.0080874 O_OD=      0.4987070 O_TOT=      4.5097239 <-- SPRD
 Delta: O_D=  0.4872318E-13 O_OD= -0.4829470E-13 O_TOT=  0.0000000E+00 <-- DLTA
 ------------------------------------------------------------------------------
 Cycle:     70
  WF centre and spread    1  (  0.846322,  0.846322,  0.846322 )     1.12743097
  WF centre and spread    2  ( -0.846322,  0.846322, -0.846322 )     1.12743100
  WF centre and spread    3  ( -0.846322, -0.846322,  0.846322 )     1.12743099
  WF centre and spread    4  (  0.846322, -0.846322, -0.846322 )     1.12743096
  Sum of centres and spreads (  0.000000,  0.000000,  0.000000 )     4.50972393
 
     70    -0.888E-15     0.0000000261        4.5097239313       4.73  <-- CONV
        O_D=      0.0080874 O_OD=      0.4987070 O_TOT=      4.5097239 <-- SPRD
 Delta: O_D=  0.2941571E-13 O_OD= -0.3025358E-13 O_TOT= -0.8881784E-15 <-- DLTA
 ------------------------------------------------------------------------------
 Cycle:     71
  WF centre and spread    1  (  0.846322,  0.846322,  0.846322 )     1.12743097
  WF centre and spread    2  ( -0.846322,  0.846322, -0.846322 )     1.12743100
  WF centre and spread    3  ( -0.846322, -0.846322,  0.846322 )     1.12743099
  WF centre and spread    4  (  0.846322, -0.846322, -0.846322 )     1.12743096
  Sum of centres and spreads (  0.000000,  0.000000,  0.000000 )     4.50972393
 
     71    -0.888E-15     0.0000000220        4.5097239313       4.73  <-- CONV
        O_D=      0.0080874 O_OD=      0.4987070 O_TOT=      4.5097239 <-- SPRD
 Delta: O_D= -0.1169551E-13 O_OD=  0.1076916E-13 O_TOT= -0.8881784E-15 <-- DLTA
 ------------------------------------------------------------------------------
 Cycle:     72
  WF centre and spread    1  (  0.846322,  0.846322,  0.846322 )     1.12743097
  WF centre and spread    2  ( -0.846322,  0.846322, -0.846322 )     1.12743100
  WF centre and spread    3  ( -0.846322, -0.846322,  0.846322 )     1.12743099
  WF centre and spread    4  (  0.846322, -0.846322, -0.846322 )     1.12743096
  Sum of centres and spreads (  0.000000,  0.000000,  0.000000 )     4.50972393
 
     72     0.888E-15     0.0000000206        4.5097239313       4.73  <-- CONV
        O_D=      0.0080874 O_OD=      0.4987070 O_TOT=      4.5097239 <-- SPRD
 Delta: O_D= -0.6609296E-15 O_OD=  0.1276756E-14 O_TOT=  0.8881784E-15 <-- DLTA
 ------------------------------------------------------------------------------
 Cycle:     73
  WF centre and spread    1  (  0.846322,  0.846322,  0.846322 )     1.12743097
  WF centre and spread    2  ( -0.846322,  0.846322, -0.846322 )     1.12743100
  WF centre and spread    3  ( -0.846322, -0.846322,  0.846322 )     1.12743099
  WF centre and spread    4  (  0.846322, -0.846322, -0.846322 )     1.12743096
  Sum of centres and spreads (  0.000000,  0.000000,  0.000000 )     4.50972393
 
     73     0.000E+00     0.0000000205        4.5097239313       4.73  <-- CONV
        O_D=      0.0080874 O_OD=      0.4987070 O_TOT=      4.5097239 <-- SPRD
 Delta: O_D= -0.2931162E-13 O_OD=  0.2980949E-13 O_TOT=  0.0000000E+00 <-- DLTA
 ------------------------------------------------------------------------------
 Cycle:     74
  WF centre and spread    1  (  0.846322,  0.846322,  0.846322 )     1.12743097
  WF centre and spread    2  ( -0.846322,  0.846322, -0.846322 )     1.12743100
  WF centre and spread    3  ( -0.846322, -0.846322,  0.846322 )     1.12743099
  WF centre and spread    4  (  0.846322, -0.846322, -0.846322 )     1.12743096
  Sum of centres and spreads (  0.000000,  0.000000,  0.000000 )     4.50972393
 
     74     0.000E+00     0.0000000175        4.5097239313       4.73  <-- CONV
        O_D=      0.0080874 O_OD=      0.4987070 O_TOT=      4.5097239 <-- SPRD
 Delta: O_D= -0.2584565E-13 O_OD=  0.2547962E-13 O_TOT=  0.0000000E+00 <-- DLTA
 ------------------------------------------------------------------------------
 Cycle:     75
  WF centre and spread    1  (  0.846322,  0.846322,  0.846322 )     1.12743097
  WF centre and spread    2  ( -0.846322,  0.846322, -0.846322 )     1.12743100
  WF centre and spread    3  ( -0.846322, -0.846322,  0.846322 )     1.12743099
  WF centre and spread    4  (  0.846322, -0.846322, -0.846322 )     1.12743096
  Sum of centres and spreads (  0.000000,  0.000000,  0.000000 )     4.50972393
 
     75     0.000E+00     0.0000000154        4.5097239313       4.73  <-- CONV
        O_D=      0.0080874 O_OD=      0.4987070 O_TOT=      4.5097239 <-- SPRD
 Delta: O_D= -0.1981054E-13 O_OD=  0.1976197E-13 O_TOT=  0.0000000E+00 <-- DLTA
 ------------------------------------------------------------------------------
 Cycle:     76
  WF centre and spread    1  (  0.846322,  0.846322,  0.846322 )     1.12743097
  WF centre and spread    2  ( -0.846322,  0.846322, -0.846322 )     1.12743100
  WF centre and spread    3  ( -0.846322, -0.846322,  0.846322 )     1.12743099
  WF centre and spread    4  (  0.846322, -0.846322, -0.846322 )     1.12743096
  Sum of centres and spreads (  0.000000,  0.000000,  0.000000 )     4.50972393
 
     76     0.888E-15     0.0000000135        4.5097239313       4.73  <-- CONV
        O_D=      0.0080874 O_OD=      0.4987070 O_TOT=      4.5097239 <-- SPRD
 Delta: O_D= -0.7008283E-15 O_OD=  0.1387779E-14 O_TOT=  0.8881784E-15 <-- DLTA
 ------------------------------------------------------------------------------
 Cycle:     77
  WF centre and spread    1  (  0.846322,  0.846322,  0.846322 )     1.12743097
  WF centre and spread    2  ( -0.846322,  0.846322, -0.846322 )     1.12743100
  WF centre and spread    3  ( -0.846322, -0.846322,  0.846322 )     1.12743099
  WF centre and spread    4  (  0.846322, -0.846322, -0.846322 )     1.12743096
  Sum of centres and spreads (  0.000000,  0.000000,  0.000000 )     4.50972393
 
     77    -0.888E-15     0.0000000134        4.5097239313       4.73  <-- CONV
        O_D=      0.0080874 O_OD=      0.4987070 O_TOT=      4.5097239 <-- SPRD
 Delta: O_D=  0.3608225E-14 O_OD= -0.3996803E-14 O_TOT= -0.8881784E-15 <-- DLTA
 ------------------------------------------------------------------------------
 Cycle:     78
  WF centre and spread    1  (  0.846322,  0.846322,  0.846322 )     1.12743097
  WF centre and spread    2  ( -0.846322,  0.846322, -0.846322 )     1.12743100
  WF centre and spread    3  ( -0.846322, -0.846322,  0.846322 )     1.12743099
  WF centre and spread    4  (  0.846322, -0.846322, -0.846322 )     1.12743096
  Sum of centres and spreads (  0.000000,  0.000000,  0.000000 )     4.50972393
 
     78     0.888E-15     0.0000000125        4.5097239313       4.73  <-- CONV
        O_D=      0.0080874 O_OD=      0.4987070 O_TOT=      4.5097239 <-- SPRD
 Delta: O_D=  0.2985459E-14 O_OD= -0.2886580E-14 O_TOT=  0.8881784E-15 <-- DLTA
 ------------------------------------------------------------------------------
 Cycle:     79
  WF centre and spread    1  (  0.846322,  0.846322,  0.846322 )     1.12743097
  WF centre and spread    2  ( -0.846322,  0.846322, -0.846322 )     1.12743100
  WF centre and spread    3  ( -0.846322, -0.846322,  0.846322 )     1.12743099
  WF centre and spread    4  (  0.846322, -0.846322, -0.846322 )     1.12743096
  Sum of centres and spreads (  0.000000,  0.000000,  0.000000 )     4.50972393
 
     79     0.888E-15     0.0000000119        4.5097239313       4.73  <-- CONV
        O_D=      0.0080874 O_OD=      0.4987070 O_TOT=      4.5097239 <-- SPRD
 Delta: O_D=  0.2439021E-14 O_OD= -0.1276756E-14 O_TOT=  0.8881784E-15 <-- DLTA
 ------------------------------------------------------------------------------
 Cycle:     80
  WF centre and spread    1  (  0.846322,  0.846322,  0.846322 )     1.12743097
  WF centre and spread    2  ( -0.846322,  0.846322, -0.846322 )     1.12743100
  WF centre and spread    3  ( -0.846322, -0.846322,  0.846322 )     1.12743099
  WF centre and spread    4  (  0.846322, -0.846322, -0.846322 )     1.12743096
  Sum of centres and spreads (  0.000000,  0.000000,  0.000000 )     4.50972393
 
     80     0.000E+00     0.0000000113        4.5097239313       4.73  <-- CONV
        O_D=      0.0080874 O_OD=      0.4987070 O_TOT=      4.5097239 <-- SPRD
 Delta: O_D=  0.2033096E-14 O_OD= -0.2442491E-14 O_TOT=  0.0000000E+00 <-- DLTA
 ------------------------------------------------------------------------------
 Final State
  WF centre and spread    1  (  0.846322,  0.846322,  0.846322 )     1.12743097
  WF centre and spread    2  ( -0.846322,  0.846322, -0.846322 )     1.12743100
  WF centre and spread    3  ( -0.846322, -0.846322,  0.846322 )     1.12743099
  WF centre and spread    4  (  0.846322, -0.846322, -0.846322 )     1.12743096
  Sum of centres and spreads (  0.000000,  0.000000,  0.000000 )     4.50972393
 
         Spreads (Ang^2)       Omega I      =     4.002929520
        ================       Omega D      =     0.008087409
                               Omega OD     =     0.498707002
    Final Spread (Ang^2)       Omega Total  =     4.509723931
 ------------------------------------------------------------------------------

 Writing checkpoint file wannier90.chk... done

 Time for wannierise            0.046 (sec)
 Total Execution Time           0.060 (sec)

 *===========================================================================*
 |                             TIMING INFORMATION                            |
 *===========================================================================*
 |    Tag                                                Ncalls      Time (s)|
 |---------------------------------------------------------------------------|
 |kmesh: get                                        :         2         0.024|
 |wann: main                                        :         1         0.046|
 *---------------------------------------------------------------------------*
 
 All done: wannier90 exiting
