
.Version 5.6.4  of ABINIT 
.(sequential version, prepared for a x86_64_linux_gcc4.3 computer) 

.Copyright (C) 1998-2008 ABINIT group . 
 ABINIT comes with ABSOLUTELY NO WARRANTY.
 It is free software, and you are welcome to redistribute it
 under certain conditions (GNU General Public License,
 see ~abinit/COPYING or http://www.gnu.org/copyleft/gpl.txt).

 ABINIT is a project of the Universite Catholique de Louvain,
 Corning Inc. and other collaborators, see ~abinit/doc/developers/contributors.txt .
 Please read ~abinit/doc/users/acknowledgments.html for suggested
 acknowledgments of the ABINIT effort.
 For more information, see http://www.abinit.org .

.Starting date : Wed 19 Nov 2008.
  
- input  file    -> /home/gonze/ABINIT/ABINITv5.6.4/trunk/5.6.4-private/tests/v2/Input/t02.in
- output file    -> t02.out
- root for input  files -> t02i
- root for output files -> t02o


 Symmetries : space group P1 (#  1); Bravais aP (primitive triclinic)
================================================================================
 Values of the parameters that define the memory need of the present run
   intxc =         0  ionmov =         0    iscf =         3 xclevel =         1
  lmnmax =         1   lnmax =         1   mband =         4  mffmem =         1
P  mgfft =        16   mkmem =         2 mpssoang=         1     mpw =        69
  mqgrid =      3001   natom =         2    nfft =      4096    nkpt =         2
  nloalg =         4  nspden =         1 nspinor =         1  nsppol =         1
    nsym =         1  n1xccc =         0  ntypat =         1  occopt =         1
================================================================================
P This job should need less than                       1.051 Mbytes of memory.
  Rough estimation (10% accuracy) of disk space for files :
  WF disk file :      0.010 Mbytes ; DEN or POT disk file :      0.033 Mbytes.
================================================================================

 -outvars: echo values of preprocessed input variables --------
     acell    1.0000000000E+01  1.0000000000E+01  1.0000000000E+01 Bohr
       amu    7.26100000E+01
    diemac    1.50000000E+00
      ecut    1.20000000E+00 Hartree
      iscf         3
       ixc         3
       kpt    0.00000000E+00  0.00000000E+00  1.25000000E-01
              0.00000000E+00  0.00000000E+00  3.75000000E-01
P    mkmem         2
     natom         2
     nband         4
     ngfft        16      16      16
      nkpt         2
      nsym         1
    ntypat         1
       occ    2.000000  2.000000  2.000000  2.000000
   spgroup         1
    tolwfr    1.00000000E-22
     typat    1  1
       wtk      0.50000    0.50000
    xangst    0.0000000000E+00  0.0000000000E+00  0.0000000000E+00
              0.0000000000E+00  0.0000000000E+00  1.5875316258E+00
     xcart    0.0000000000E+00  0.0000000000E+00  0.0000000000E+00
              0.0000000000E+00  0.0000000000E+00  3.0000000000E+00
      xred    0.0000000000E+00  0.0000000000E+00  0.0000000000E+00
              0.0000000000E+00  0.0000000000E+00  3.0000000000E-01
     znucl     32.00000

================================================================================

 chkinp: Checking input parameters for consistency.

================================================================================
== DATASET  1 ==================================================================

 Real(R)+Recip(G) space primitive vectors, cartesian coordinates (Bohr,Bohr^-1):
 R(1)= 10.0000000  0.0000000  0.0000000  G(1)=  0.1000000  0.0000000  0.0000000
 R(2)=  0.0000000 10.0000000  0.0000000  G(2)=  0.0000000  0.1000000  0.0000000
 R(3)=  0.0000000  0.0000000 10.0000000  G(3)=  0.0000000  0.0000000  0.1000000
 Unit cell volume ucvol=  1.0000000E+03 bohr^3
 Angles (23,13,12)=  9.00000000E+01  9.00000000E+01  9.00000000E+01 degrees

 getcut: wavevector=  0.0000  0.0000  0.0000  ngfft=  16  16  16
         ecut(hartree)=      1.200   => boxcut(ratio)=   3.24462

 getcut : COMMENT -
  Note that boxcut > 2.2 ; recall that boxcut=Gcut(box)/Gcut(sphere) = 2
  is sufficient for exact treatment of convolution.
  Such a large boxcut is a waste : you could raise ecut
  e.g. ecut=    3.158273 Hartrees makes boxcut=2


--- Pseudopotential description ------------------------------------------------
- pspini: atom type   1  psp file is /home/gonze/ABINIT/ABINITv5.6.4/trunk/5.6.4-private/tests/Psps_for_tests/32ge.SJ_mod
- pspatm: opening atomic psp file    /home/gonze/ABINIT/ABINITv5.6.4/trunk/5.6.4-private/tests/Psps_for_tests/32ge.SJ_mod
   Starkloff-Joannopoulos local psp ( !!! OLD : only for tests)
  32.00000   4.00000    900101                znucl, zion, pspdat
    5    3    0    0       700   0.00000      pspcod,pspxc,lmax,lloc,mmax,r2well
    1.000000E-06    2.603367E-02              r1 and al (Hamman grid)
    0   0.000   0.000    0   1.0500000        l,e99.0,e99.9,nproj,rcpsp
   0.00000000   0.00000000   0.00000000   0.00000000     rms, ekb1, ekb2, epsatm
    0.00000000000000    0.00000000000000    0.00000000000000   rchrg,fchrg,qchrg
 Note: local psp for atom with Z= 32.0
 pspatm: epsatm=   27.96404307
         --- l  ekb(1:nproj) -->
 pspatm: atomic psp has been read  and splines computed

   4.47424689E+02                                ecore*ucvol(ha*bohr**3)
--------------------------------------------------------------------------------

P newkpt: treating      4 bands with npw=      69 for ikpt=   1
P newkpt: treating      4 bands with npw=      65 for ikpt=   2

 setup2: Arith. and geom. avg. npw (full set) are      67.000      66.970

================================================================================

     iter   Etot(hartree)      deltaE(h)  residm     vres2    diffor    maxfor
 ETOT  1  -6.8258693495415    -6.826E+00 8.327E-04 7.396E+00 7.433E-01 7.433E-01
 ETOT  2  -6.8432612126025    -1.739E-02 6.436E-08 1.835E-01 7.582E-03 7.357E-01
 ETOT  3  -6.8434856616024    -2.244E-04 1.651E-06 8.394E-03 2.431E-03 7.381E-01
 ETOT  4  -6.8434709133886     1.475E-05 1.118E-06 9.622E-03 8.426E-04 7.373E-01
 ETOT  5  -6.8435100699597    -3.916E-05 5.244E-07 6.115E-04 1.512E-04 7.374E-01
 ETOT  6  -6.8435121320983    -2.062E-06 2.760E-08 2.749E-05 1.282E-04 7.376E-01
 ETOT  7  -6.8435122350921    -1.030E-07 1.228E-09 2.302E-06 5.540E-05 7.375E-01
 ETOT  8  -6.8435122381333    -3.041E-09 4.000E-11 2.923E-07 1.281E-05 7.375E-01
 ETOT  9  -6.8435122368313     1.302E-09 5.920E-11 5.372E-07 1.775E-06 7.375E-01
 ETOT 10  -6.8435122392403    -2.409E-09 2.357E-11 4.865E-09 2.828E-07 7.375E-01
 ETOT 11  -6.8435122392507    -1.032E-11 1.242E-13 1.740E-10 4.026E-07 7.375E-01
 ETOT 12  -6.8435122392510    -3.428E-13 9.745E-15 5.517E-11 1.344E-07 7.375E-01
 ETOT 13  -6.8435122392511    -9.592E-14 3.242E-15 1.244E-11 4.215E-08 7.375E-01
 ETOT 14  -6.8435122392512    -7.017E-14 1.001E-15 3.097E-12 7.090E-09 7.375E-01
 ETOT 15  -6.8435122392511     3.464E-14 1.405E-16 7.018E-14 6.136E-09 7.375E-01
 ETOT 16  -6.8435122392512    -4.263E-14 1.250E-18 2.106E-15 1.497E-09 7.375E-01
 ETOT 17  -6.8435122392512     1.599E-14 8.817E-20 4.512E-16 3.914E-10 7.375E-01
 ETOT 18  -6.8435122392512    -2.753E-14 1.805E-20 4.013E-17 2.084E-10 7.375E-01
 ETOT 19  -6.8435122392512     2.043E-14 4.547E-21 2.551E-17 3.984E-11 7.375E-01
 ETOT 20  -6.8435122392512    -3.553E-15 1.472E-21 2.305E-18 4.212E-12 7.375E-01
 ETOT 21  -6.8435122392512    -8.882E-15 9.696E-23 8.544E-20 1.351E-11 7.375E-01

 At SCF step   21   max residual=  9.70E-23 < tolwfr=  1.00E-22 =>converged.

 Cartesian components of stress tensor (hartree/bohr^3)
  sigma(1 1)=  3.15153623E-04  sigma(3 2)=  1.37190153E-15
  sigma(2 2)=  3.15153623E-04  sigma(3 1)=  0.00000000E+00
  sigma(3 3)= -1.88255478E-03  sigma(2 1)=  0.00000000E+00

================================================================================

 ----iterations are completed or convergence reached----

 Mean square residual over all n,k,spin=   6.2622E-23; max=  9.6960E-23
   0.0000  0.0000  0.1250    1  9.69600E-23 kpt; spin; max resid(k); each band:
 9.70E-23 8.82E-23 3.43E-23 4.55E-23
   0.0000  0.0000  0.3750    1  8.97010E-23 kpt; spin; max resid(k); each band:
 8.97E-23 7.75E-23 2.61E-23 4.27E-23
 reduced coordinates (array xred) for    2 atoms
       0.000000000000      0.000000000000      0.000000000000
       0.000000000000      0.000000000000      0.300000000000
 rms dE/dt=  4.2580E+00; max dE/dt=  7.3752E+00; dE/dt below (all hartree)
    1       0.000000000003      0.000000000009      7.375154123917
    2       0.000000000008     -0.000000000012     -7.375153877783

 cartesian coordinates (angstrom) at end:
    1      0.00000000000000     0.00000000000000     0.00000000000000
    2      0.00000000000000     0.00000000000000     1.58753162577000

 cartesian forces (hartree/bohr) at end:
    1      0.00000000000023    -0.00000000000104    -0.73751540008499
    2     -0.00000000000023     0.00000000000104     0.73751540008499
 frms,max,avg= 4.2580471E-01 7.3751540E-01  -5.336E-13  1.152E-13 -1.231E-08 h/b

 cartesian forces (eV/Angstrom) at end:
    1      0.00000000001176    -0.00000000005361   -37.92456350840912
    2     -0.00000000001176     0.00000000005361    37.92456350840912
 frms,max,avg= 2.1895757E+01 3.7924564E+01  -2.744E-11  5.923E-12 -6.328E-07 e/A
 length scales= 10.000000000000 10.000000000000 10.000000000000 bohr
              =  5.291772085900  5.291772085900  5.291772085900 angstroms
 prteigrs : about to open file t02o_EIG
 Fermi (or HOMO) energy (hartree) =  -0.16775   Average Vxc (hartree)=  -0.17366
 Eigenvalues (hartree) for nkpt=   2  k points:
 kpt#   1, nband=  4, wtk=  0.50000, kpt=  0.0000  0.0000  0.1250 (reduced coord)
  -0.47852  -0.22152  -0.17000  -0.17000
 kpt#   2, nband=  4, wtk=  0.50000, kpt=  0.0000  0.0000  0.3750 (reduced coord)
  -0.47259  -0.26076  -0.16775  -0.16775
 Total charge density [el/Bohr^3]
,     Maximum=    6.4186E-02  at reduced coord.    0.0000    0.8750    0.1250
,Next maximum=    6.4186E-02  at reduced coord.    0.0000    0.1250    0.1250
,     Minimum=    3.5580E-05  at reduced coord.    0.5000    0.5000    0.4375
,Next minimum=    3.5751E-05  at reduced coord.    0.5000    0.5000    0.8750

--------------------------------------------------------------------------------
 Components of total free energy (in Hartree) :

    Kinetic energy  =  2.48083560461025E+00
    Hartree energy  =  2.42462174856945E+00
    XC energy       = -2.12952416431540E+00
    Ewald energy    = -3.40312010772530E+00
    PspCore energy  =  4.47424689112482E-01
    Loc. psp. energy= -6.66375000950267E+00
    NL   psp  energy=  0.00000000000000E+00
    >>>>>>>>> Etotal= -6.84351223925118E+00

 Other information on the energy :
    Total energy(eV)= -1.86221438492872E+02 ; Band energy (Ha)=  -2.1089039390E+00
--------------------------------------------------------------------------------

 Cartesian components of stress tensor (hartree/bohr^3)
  sigma(1 1)=  3.15153623E-04  sigma(3 2)=  1.37190153E-15
  sigma(2 2)=  3.15153623E-04  sigma(3 1)=  0.00000000E+00
  sigma(3 3)= -1.88255478E-03  sigma(2 1)=  0.00000000E+00

-Cartesian components of stress tensor (GPa)         [Pressure=  1.2281E+01 GPa]
- sigma(1 1)=  9.27213816E+00  sigma(3 2)=  4.03627298E-11
- sigma(2 2)=  9.27213816E+00  sigma(3 1)=  0.00000000E+00
- sigma(3 3)= -5.53866644E+01  sigma(2 1)=  0.00000000E+00

== END DATASET(S) ==============================================================
================================================================================
  
 -outvars: echo values of variables after computation  --------
     acell    1.0000000000E+01  1.0000000000E+01  1.0000000000E+01 Bohr
       amu    7.26100000E+01
    diemac    1.50000000E+00
      ecut    1.20000000E+00 Hartree
    etotal   -6.8435122393E+00
     fcart    2.2859957626E-13 -1.0425851899E-12 -7.3751540008E-01
             -2.2859957626E-13  1.0425851899E-12  7.3751540008E-01
      iscf         3
       ixc         3
       kpt    0.00000000E+00  0.00000000E+00  1.25000000E-01
              0.00000000E+00  0.00000000E+00  3.75000000E-01
P    mkmem         2
     natom         2
     nband         4
     ngfft        16      16      16
      nkpt         2
      nsym         1
    ntypat         1
       occ    2.000000  2.000000  2.000000  2.000000
   spgroup         1
    strten    3.1515362344E-04  3.1515362342E-04 -1.8825547753E-03
              1.3719015314E-15  0.0000000000E+00  0.0000000000E+00
    tolwfr    1.00000000E-22
     typat    1  1
       wtk      0.50000    0.50000
    xangst    0.0000000000E+00  0.0000000000E+00  0.0000000000E+00
              0.0000000000E+00  0.0000000000E+00  1.5875316258E+00
     xcart    0.0000000000E+00  0.0000000000E+00  0.0000000000E+00
              0.0000000000E+00  0.0000000000E+00  3.0000000000E+00
      xred    0.0000000000E+00  0.0000000000E+00  0.0000000000E+00
              0.0000000000E+00  0.0000000000E+00  3.0000000000E-01
     znucl     32.00000

================================================================================

- Total cpu        time (s,m,h):          1.1        0.02      0.000
- Total wall clock time (s,m,h):          1.1        0.02      0.000

- For major independent code sections, cpu and wall times (sec),
- as well as % of the total time and number of calls 

- routine                 cpu     %       wall     %      number of calls 
-                                                          (-1=no count)
- invars2                0.183  16.9      0.183  16.9              1
- pspini                 0.167  15.4      0.168  15.5              1
- vtowfk(ssdiag)         0.163  15.1      0.162  15.0             -1
- status                 0.157  14.5      0.159  14.7           1014
- fourwf(pot)            0.149  13.8      0.126  11.6            871
- timing timab           0.103   9.5      0.104   9.6              8
- abinit(2)              0.030   2.8      0.030   2.8              1
- fourwf(den)            0.015   1.4      0.016   1.5            168
- forces                 0.015   1.4      0.020   1.8             21
- getghc-other           0.013   1.2      0.012   1.1             -1
- xc:pot/=fourdp         0.012   1.1      0.009   0.8             22
- fourdp                 0.006   0.6      0.013   1.2             85
- vtowfk  (1)            0.004   0.4      0.007   0.6             42
- projbd                 0.003   0.3      0.012   1.1           1374
- 56   others            0.030   2.8      0.028   2.6

- subtotal               1.050  97.0      1.049  97.0

================================================================================

 Calculation completed.
.Delivered    5 WARNINGs and   5 COMMENTs to log file.
+Overall time at end (sec) : cpu=          1.1  wall=          1.1
