
 **** DERIVATIVE DATABASE ****    
+DDB, Version number     10929

 DDB for GaAs, 2.0Ha, 2SP in the IBZ. For testing purposes only.                                                                                                                                                                                                         

     natom         2
      nkpt        32
    nsppol         1
      nsym        24
    ntypat         2
    occopt         1
     nband         4
     acell  0.10600000000000D+02  0.10600000000000D+02  0.10600000000000D+02
       amu  0.69720000000000D+02  0.74921600000000D+02
   dilatmx  0.10000000000000D+01
      ecut  0.10000000000000D+01
    ecutsm  0.00000000000000D+00
     intxc         0
      iscf         3
       ixc         3
       kpt -0.25000000000000D+00  0.50000000000000D+00  0.00000000000000D+00
            0.50000000000000D+00 -0.25000000000000D+00  0.00000000000000D+00
           -0.25000000000000D+00 -0.25000000000000D+00  0.25000000000000D+00
           -0.25000000000000D+00  0.00000000000000D+00  0.00000000000000D+00
            0.50000000000000D+00  0.25000000000000D+00  0.00000000000000D+00
           -0.25000000000000D+00  0.25000000000000D+00  0.25000000000000D+00
            0.25000000000000D+00  0.50000000000000D+00  0.00000000000000D+00
            0.50000000000000D+00  0.50000000000000D+00  0.25000000000000D+00
           -0.25000000000000D+00  0.50000000000000D+00  0.50000000000000D+00
            0.00000000000000D+00 -0.25000000000000D+00  0.00000000000000D+00
            0.25000000000000D+00 -0.25000000000000D+00  0.25000000000000D+00
            0.50000000000000D+00 -0.25000000000000D+00  0.50000000000000D+00
           -0.25000000000000D+00 -0.25000000000000D+00 -0.25000000000000D+00
            0.25000000000000D+00  0.00000000000000D+00  0.00000000000000D+00
            0.50000000000000D+00  0.00000000000000D+00  0.25000000000000D+00
           -0.25000000000000D+00  0.00000000000000D+00  0.50000000000000D+00
            0.00000000000000D+00  0.25000000000000D+00  0.00000000000000D+00
            0.25000000000000D+00  0.25000000000000D+00  0.25000000000000D+00
            0.50000000000000D+00  0.25000000000000D+00  0.50000000000000D+00
           -0.25000000000000D+00  0.25000000000000D+00 -0.25000000000000D+00
            0.00000000000000D+00  0.50000000000000D+00  0.25000000000000D+00
            0.25000000000000D+00  0.50000000000000D+00  0.50000000000000D+00
            0.50000000000000D+00  0.50000000000000D+00 -0.25000000000000D+00
            0.00000000000000D+00 -0.25000000000000D+00  0.50000000000000D+00
            0.25000000000000D+00 -0.25000000000000D+00 -0.25000000000000D+00
            0.00000000000000D+00  0.00000000000000D+00  0.25000000000000D+00
            0.25000000000000D+00  0.00000000000000D+00  0.50000000000000D+00
            0.50000000000000D+00  0.00000000000000D+00 -0.25000000000000D+00
            0.00000000000000D+00  0.25000000000000D+00  0.50000000000000D+00
            0.25000000000000D+00  0.25000000000000D+00 -0.25000000000000D+00
            0.00000000000000D+00  0.50000000000000D+00 -0.25000000000000D+00
            0.00000000000000D+00  0.00000000000000D+00 -0.25000000000000D+00
    kptnrm  0.10000000000000D+01
     ngfft         8    8    8
    nspden         1
   nspinor         1
       occ  0.20000000000000D+01  0.20000000000000D+01  0.20000000000000D+01
            0.20000000000000D+01
     rprim  0.00000000000000D+00  0.50000000000000D+00  0.50000000000000D+00
            0.50000000000000D+00  0.00000000000000D+00  0.50000000000000D+00
            0.50000000000000D+00  0.50000000000000D+00  0.00000000000000D+00
     sciss  0.00000000000000D+00
    spinat  0.00000000000000D+00  0.00000000000000D+00  0.00000000000000D+00
            0.00000000000000D+00  0.00000000000000D+00  0.00000000000000D+00
    symafm         1    1    1    1    1    1    1    1    1    1    1    1
                   1    1    1    1    1    1    1    1    1    1    1    1
    symrel         1    0    0    0    1    0    0    0    1
                   0    1   -1    1    0   -1    0    0   -1
                   0   -1    1    0   -1    0    1   -1    0
                  -1    0    0   -1    0    1   -1    1    0
                   0    1    0    0    0    1    1    0    0
                   1    0   -1    0    0   -1    0    1   -1
                   0   -1    0    1   -1    0    0   -1    1
                  -1    0    1   -1    1    0   -1    0    0
                   0    0    1    1    0    0    0    1    0
                   0    0   -1    0    1   -1    1    0   -1
                   1   -1    0    0   -1    1    0   -1    0
                  -1    1    0   -1    0    0   -1    0    1
                   1    0   -1    0    1   -1    0    0   -1
                   0    1    0    1    0    0    0    0    1
                  -1    0    1   -1    0    0   -1    1    0
                   0   -1    0    0   -1    1    1   -1    0
                  -1    1    0   -1    0    1   -1    0    0
                   1   -1    0    0   -1    0    0   -1    1
                   0    0   -1    1    0   -1    0    1   -1
                   0    0    1    0    1    0    1    0    0
                   0   -1    1    1   -1    0    0   -1    0
                  -1    0    0   -1    1    0   -1    0    1
                   1    0    0    0    0    1    0    1    0
                   0    1   -1    0    0   -1    1    0   -1
     tnons  0.00000000000000D+00  0.00000000000000D+00  0.00000000000000D+00
            0.00000000000000D+00  0.00000000000000D+00  0.00000000000000D+00
            0.00000000000000D+00  0.00000000000000D+00  0.00000000000000D+00
            0.00000000000000D+00  0.00000000000000D+00  0.00000000000000D+00
            0.00000000000000D+00  0.00000000000000D+00  0.00000000000000D+00
            0.00000000000000D+00  0.00000000000000D+00  0.00000000000000D+00
            0.00000000000000D+00  0.00000000000000D+00  0.00000000000000D+00
            0.00000000000000D+00  0.00000000000000D+00  0.00000000000000D+00
            0.00000000000000D+00  0.00000000000000D+00  0.00000000000000D+00
            0.00000000000000D+00  0.00000000000000D+00  0.00000000000000D+00
            0.00000000000000D+00  0.00000000000000D+00  0.00000000000000D+00
            0.00000000000000D+00  0.00000000000000D+00  0.00000000000000D+00
            0.00000000000000D+00  0.00000000000000D+00  0.00000000000000D+00
            0.00000000000000D+00  0.00000000000000D+00  0.00000000000000D+00
            0.00000000000000D+00  0.00000000000000D+00  0.00000000000000D+00
            0.00000000000000D+00  0.00000000000000D+00  0.00000000000000D+00
            0.00000000000000D+00  0.00000000000000D+00  0.00000000000000D+00
            0.00000000000000D+00  0.00000000000000D+00  0.00000000000000D+00
            0.00000000000000D+00  0.00000000000000D+00  0.00000000000000D+00
            0.00000000000000D+00  0.00000000000000D+00  0.00000000000000D+00
            0.00000000000000D+00  0.00000000000000D+00  0.00000000000000D+00
            0.00000000000000D+00  0.00000000000000D+00  0.00000000000000D+00
            0.00000000000000D+00  0.00000000000000D+00  0.00000000000000D+00
            0.00000000000000D+00  0.00000000000000D+00  0.00000000000000D+00
    tolwfr  0.10000000000000D+01
   tphysel  0.00000000000000D+00
    tsmear  0.40000000000000D-01
     typat         1    2
       wtk  0.31250000000000D-01  0.31250000000000D-01  0.31250000000000D-01
            0.31250000000000D-01  0.31250000000000D-01  0.31250000000000D-01
            0.31250000000000D-01  0.31250000000000D-01  0.31250000000000D-01
            0.31250000000000D-01  0.31250000000000D-01  0.31250000000000D-01
            0.31250000000000D-01  0.31250000000000D-01  0.31250000000000D-01
            0.31250000000000D-01  0.31250000000000D-01  0.31250000000000D-01
            0.31250000000000D-01  0.31250000000000D-01  0.31250000000000D-01
            0.31250000000000D-01  0.31250000000000D-01  0.31250000000000D-01
            0.31250000000000D-01  0.31250000000000D-01  0.31250000000000D-01
            0.31250000000000D-01  0.31250000000000D-01  0.31250000000000D-01
            0.31250000000000D-01  0.31250000000000D-01
      xred  0.00000000000000D+00  0.00000000000000D+00  0.00000000000000D+00
            0.25000000000000D+00  0.25000000000000D+00  0.25000000000000D+00
     znucl  0.31000000000000D+02  0.33000000000000D+02
      zion  0.30000000000000D+01  0.50000000000000D+01
 
  Description of the potentials (KB energies)
  vrsio8 (for pseudopotentials)= 10929
  dimekb =  2       lmnmax=  2       usepaw=  0
  Atom type=    1   pspso=  0   nekb=   2
  iln lpsang iproj  ekb(:)
     1     0     1     9.3973393E+00  0.0000000E+00
     2     1     1     0.0000000E+00 -5.2572534E-01
  Atom type=    2   pspso=  0   nekb=   2
  iln lpsang iproj  ekb(:)
     1     0     1     9.0194587E+00  0.0000000E+00
     2     1     1     0.0000000E+00 -9.0827370E-01
 
 **** Database of total energy derivatives ****
 Number of data blocks=    3
  
 2rd derivatives (non-stat.)  - # elements :      81
 qpt  0.00000000E+00  0.00000000E+00  0.00000000E+00   1.0
   1   1   1   1  0.16786640711808D+02  0.00000000000000D+00
   2   1   1   1  0.83933203601714D+01  0.00000000000000D+00
   3   1   1   1  0.83933203601714D+01  0.00000000000000D+00
   1   2   1   1 -0.16787006427419D+02  0.10225447770531D-16
   2   2   1   1 -0.83935032144531D+01  0.16619099400161D-17
   3   2   1   1 -0.83935032144531D+01  0.44932481609398D-17
   1   4   1   1 -0.12195106154655D+02  0.00000000000000D+00
   2   4   1   1  0.48532161618306D-08  0.00000000000000D+00
   3   4   1   1 -0.48532161618306D-08  0.00000000000000D+00
   1   1   2   1  0.83933203601714D+01  0.00000000000000D+00
   2   1   2   1  0.16786640711808D+02  0.00000000000000D+00
   3   1   2   1  0.83933203516364D+01  0.00000000000000D+00
   1   2   2   1 -0.83935032068949D+01  0.16619099400161D-17
   2   2   2   1 -0.16787006427419D+02 -0.89350875496732D-17
   3   2   2   1 -0.83935032205243D+01 -0.50877556297596D-17
   1   4   2   1  0.24015735416267D-09  0.00000000000000D+00
   2   4   2   1 -0.12195106150042D+02  0.00000000000000D+00
   3   4   2   1 -0.24015735416267D-09  0.00000000000000D+00
   1   1   3   1  0.83933203601714D+01  0.00000000000000D+00
   2   1   3   1  0.83933203516364D+01  0.00000000000000D+00
   3   1   3   1  0.16786640703273D+02  0.00000000000000D+00
   1   2   3   1 -0.83935032068949D+01  0.44932481609398D-17
   2   2   3   1 -0.83935032129660D+01 -0.50877556297596D-17
   3   2   3   1 -0.16787006433490D+02  0.13127608358110D-16
   1   4   3   1 -0.46130588076679D-08  0.00000000000000D+00
   2   4   3   1  0.46130588076679D-08  0.00000000000000D+00
   3   4   3   1 -0.12195106154895D+02  0.00000000000000D+00
   1   1   1   2 -0.16787006413319D+02 -0.10225447770531D-16
   2   1   1   2 -0.83935032068949D+01 -0.16619099400161D-17
   3   1   1   2 -0.83935032068949D+01 -0.44932481609398D-17
   1   2   1   2  0.16786671032255D+02  0.00000000000000D+00
   2   2   1   2  0.83933355161098D+01  0.00000000000000D+00
   3   2   1   2  0.83933355161098D+01  0.00000000000000D+00
   1   4   1   2 -0.37173883330128D+02  0.00000000000000D+00
   2   4   1   2  0.42619825294148D-08  0.00000000000000D+00
   3   4   1   2 -0.42619825294148D-08  0.00000000000000D+00
   1   1   2   2 -0.83935032144531D+01 -0.16619099400161D-17
   2   1   2   2 -0.16787006413319D+02  0.89350875496732D-17
   3   1   2   2 -0.83935031988662D+01  0.50877556297596D-17
   1   2   2   2  0.83933355161098D+01  0.00000000000000D+00
   2   2   2   2  0.16786671032255D+02  0.00000000000000D+00
   3   2   2   2  0.83933355161454D+01  0.00000000000000D+00
   1   4   2   2  0.10592672674046D-09  0.00000000000000D+00
   2   4   2   2 -0.37173883325972D+02  0.00000000000000D+00
   3   4   2   2 -0.10592672674046D-09  0.00000000000000D+00
   1   1   3   2 -0.83935032144531D+01 -0.44932481609398D-17
   2   1   3   2 -0.83935032064244D+01  0.50877556297596D-17
   3   1   3   2 -0.16787006405291D+02 -0.13127608358110D-16
   1   2   3   2  0.83933355161098D+01  0.00000000000000D+00
   2   2   3   2  0.83933355161454D+01  0.00000000000000D+00
   3   2   3   2  0.16786671032291D+02  0.00000000000000D+00
   1   4   3   2 -0.41560558026743D-08  0.00000000000000D+00
   2   4   3   2  0.41560558026743D-08  0.00000000000000D+00
   3   4   3   2 -0.37173883330234D+02  0.00000000000000D+00
   1   1   1   4 -0.12195106069669D+02  0.00000000000000D+00
   2   1   1   4  0.24015735416267D-09  0.00000000000000D+00
   3   1   1   4 -0.46130588076679D-08  0.00000000000000D+00
   1   2   1   4 -0.37173883163126D+02  0.00000000000000D+00
   2   2   1   4  0.10592672674046D-09  0.00000000000000D+00
   3   2   1   4 -0.41560558026743D-08  0.00000000000000D+00
   1   4   1   4 -0.11918327910050D+03  0.00000000000000D+00
   2   4   1   4  0.39727759700168D+02  0.00000000000000D+00
   3   4   1   4  0.39727759700168D+02  0.00000000000000D+00
   1   1   2   4  0.48532161618306D-08  0.00000000000000D+00
   2   1   2   4 -0.12195106065056D+02  0.00000000000000D+00
   3   1   2   4  0.46130588076679D-08  0.00000000000000D+00
   1   2   2   4  0.42619825294148D-08  0.00000000000000D+00
   2   2   2   4 -0.37173883158970D+02  0.00000000000000D+00
   3   2   2   4  0.41560558026743D-08  0.00000000000000D+00
   1   4   2   4  0.39727759700168D+02  0.00000000000000D+00
   2   4   2   4 -0.11918327910050D+03  0.00000000000000D+00
   3   4   2   4  0.39727759700168D+02  0.00000000000000D+00
   1   1   3   4 -0.48532161618306D-08  0.00000000000000D+00
   2   1   3   4 -0.24015735416267D-09  0.00000000000000D+00
   3   1   3   4 -0.12195106069909D+02  0.00000000000000D+00
   1   2   3   4 -0.42619825294148D-08  0.00000000000000D+00
   2   2   3   4 -0.10592672674046D-09  0.00000000000000D+00
   3   2   3   4 -0.37173883163232D+02  0.00000000000000D+00
   1   4   3   4  0.39727759700168D+02  0.00000000000000D+00
   2   4   3   4  0.39727759700168D+02  0.00000000000000D+00
   3   4   3   4 -0.11918327910050D+03  0.00000000000000D+00
  
 2rd derivatives (non-stat.)  - # elements :      36
 qpt  2.50000000E-01  2.50000000E-01  2.50000000E-01   1.0
   1   1   1   1  0.18464026720548D+02  0.26015913355211D-16
   2   1   1   1  0.96663350393869D+01  0.10612368392974D-06
   3   1   1   1  0.96663350393869D+01  0.10612368331784D-06
   1   2   1   1 -0.79405617047903D+01 -0.87864433960037D+01
   2   2   1   1 -0.78594196973316D+01 -0.86909741894570D+00
   3   2   1   1 -0.78594196973316D+01 -0.86909741894572D+00
   1   1   2   1  0.96663350393869D+01 -0.10612368391813D-06
   2   1   2   1  0.18464026720548D+02 -0.52494158446408D-16
   3   1   2   1  0.96663350393869D+01  0.10612368394649D-06
   1   2   2   1 -0.78594198821156D+01 -0.86909843303232D+00
   2   2   2   1 -0.79405617047903D+01 -0.87864433960037D+01
   3   2   2   1 -0.78594196973316D+01 -0.86909741894570D+00
   1   1   3   1  0.96663350393868D+01 -0.10612368341980D-06
   2   1   3   1  0.96663350393869D+01 -0.10612368390137D-06
   3   1   3   1  0.18464026720548D+02  0.28227580029536D-16
   1   2   3   1 -0.78594198821156D+01 -0.86909843303233D+00
   2   2   3   1 -0.78594198821156D+01 -0.86909843303233D+00
   3   2   3   1 -0.79405617047903D+01 -0.87864433960037D+01
   1   1   1   2 -0.79405618764880D+01  0.87864444424169D+01
   2   1   1   2 -0.78594198821156D+01  0.86909843303232D+00
   3   1   1   2 -0.78594198821156D+01  0.86909843303233D+00
   1   2   1   2  0.17566297077203D+02  0.72266425986697D-16
   2   2   1   2  0.86095271199965D+01 -0.36567618222881D-07
   3   2   1   2  0.86095271199964D+01 -0.36567615924241D-07
   1   1   2   2 -0.78594196973316D+01  0.86909741894570D+00
   2   1   2   2 -0.79405618764880D+01  0.87864444424169D+01
   3   1   2   2 -0.78594198821156D+01  0.86909843303233D+00
   1   2   2   2  0.86095271199965D+01  0.36567618255125D-07
   2   2   2   2  0.17566297077203D+02 -0.14581710679558D-15
   3   2   2   2  0.86095271199965D+01 -0.36567618176336D-07
   1   1   3   2 -0.78594196973316D+01  0.86909741894572D+00
   2   1   3   2 -0.78594196973316D+01  0.86909741894570D+00
   3   1   3   2 -0.79405618764880D+01  0.87864444424169D+01
   1   2   3   2  0.86095271199964D+01  0.36567615641028D-07
   2   2   3   2  0.86095271199965D+01  0.36567618301670D-07
   3   2   3   2  0.17566297077203D+02  0.78409944526488D-16
  
 2rd derivatives (non-stat.)  - # elements :      36
 qpt  2.50000000E-01  5.00000000E-01  5.00000000E-01   1.0
   1   1   1   1  0.17565771373913D+02  0.44948595745593D-16
   2   1   1   1  0.89508600892692D+01  0.39463268963683D+00
   3   1   1   1  0.89508600892692D+01  0.39463268963683D+00
   1   2   1   1 -0.74742568141576D+01 -0.78677038244595D+01
   2   2   1   1 -0.75961498599656D+01 -0.28107208931237D+00
   3   2   1   1 -0.75961498599656D+01 -0.28107208931237D+00
   1   1   2   1  0.89508601235475D+01 -0.39463260262460D+00
   2   1   2   1  0.18459284968601D+02 -0.23398672021242D-17
   3   1   2   1  0.98120544230855D+01  0.22840402671546D-07
   1   2   2   1 -0.75199550025712D+01 -0.19226675542165D+00
   2   2   2   1  0.43333479850485D+00 -0.46402373672694D+00
   3   2   2   1 -0.73120171412784D+01 -0.34317577064646D+00
   1   1   3   1  0.89508600892692D+01 -0.39463268963683D+00
   2   1   3   1  0.98120544230855D+01 -0.22840402689058D-07
   3   1   3   1  0.18459284968601D+02  0.36572007114888D-17
   1   2   3   1 -0.75199550377044D+01 -0.19226671522319D+00
   2   2   3   1 -0.73120171845688D+01 -0.34317573481238D+00
   3   2   3   1  0.43333479850485D+00 -0.46402373672694D+00
   1   1   1   2 -0.74742567698920D+01  0.78677038240624D+01
   2   1   1   2 -0.75199550377044D+01  0.19226671522321D+00
   3   1   1   2 -0.75199550377044D+01  0.19226671522319D+00
   1   2   1   2  0.16637052869572D+02  0.12485721040443D-15
   2   2   1   2  0.79309838277799D+01 -0.64876944039444D+00
   3   2   1   2  0.79309838277799D+01 -0.64876944039444D+00
   1   1   2   2 -0.75961497928067D+01  0.28107205879033D+00
   2   1   2   2  0.43333477006712D+00  0.46402369478481D+00
   3   1   2   2 -0.73120171845688D+01  0.34317573481238D+00
   1   2   2   2  0.79309838776807D+01  0.64876940268082D+00
   2   2   2   2  0.16304357375454D+02 -0.64996311170116D-17
   3   2   2   2  0.77241894113593D+01  0.23529956104938D-09
   1   1   3   2 -0.75961498599656D+01  0.28107208931237D+00
   2   1   3   2 -0.73120171412784D+01  0.34317577064646D+00
   3   1   3   2  0.43333477006712D+00  0.46402369478480D+00
   1   2   3   2  0.79309838277799D+01  0.64876944039444D+00
   2   2   3   2  0.77241894113593D+01 -0.23529960969384D-09
   3   2   3   2  0.16304357375454D+02  0.10158890865247D-16

 List of bloks and their characteristics 
  
 2rd derivatives (non-stat.)  - # elements :      81
 qpt  0.00000000E+00  0.00000000E+00  0.00000000E+00   1.0
  
 2rd derivatives (non-stat.)  - # elements :      36
 qpt  2.50000000E-01  2.50000000E-01  2.50000000E-01   1.0
  
 2rd derivatives (non-stat.)  - # elements :      36
 qpt  2.50000000E-01  5.00000000E-01  5.00000000E-01   1.0
