
.Version 5.6.3  of ABINIT 
.(sequential version, prepared for a x86_64_linux_gcc4.3 computer) 

.Copyright (C) 1998-2008 ABINIT group . 
 ABINIT comes with ABSOLUTELY NO WARRANTY.
 It is free software, and you are welcome to redistribute it
 under certain conditions (GNU General Public License,
 see ~abinit/COPYING or http://www.gnu.org/copyleft/gpl.txt).

 ABINIT is a project of the Universite Catholique de Louvain,
 Corning Inc. and other collaborators, see ~abinit/doc/developers/contributors.txt .
 Please read ~abinit/doc/users/acknowledgments.html for suggested
 acknowledgments of the ABINIT effort.
 For more information, see http://www.abinit.org .

.Starting date : Thu  6 Nov 2008.
  
- input  file    -> /home/gonze/ABINIT/ABINITv5.6.3/test_gcc43/5.6.3-private/tests/v2/Input/t56.in
- output file    -> t56.out
- root for input  files -> t56i
- root for output files -> t56o


 Symmetries : space group Pm -3 m (#221); Bravais cP (primitive cubic)
================================================================================
 Values of the parameters that define the memory need of the present run
   intxc =         0  ionmov =         0    iscf =         5 xclevel =         1
  lmnmax =         3   lnmax =         3   mband =         6  mffmem =         1
P  mgfft =        48   mkmem =         1 mpssoang=         3     mpw =      2872
  mqgrid =      3001   natom =         1    nfft =    110592    nkpt =         1
  nloalg =         4  nspden =         1 nspinor =         1  nsppol =         1
    nsym =        48  n1xccc =      2501  ntypat =         1  occopt =         7
================================================================================
P This job should need less than                      28.001 Mbytes of memory.
  Rough estimation (10% accuracy) of disk space for files :
  WF disk file :      0.265 Mbytes ; DEN or POT disk file :      0.846 Mbytes.
================================================================================

 -outvars: echo values of preprocessed input variables --------
     acell    9.0010000000E+00  9.0010000000E+00  9.0010000000E+00 Bohr
       amu    5.19961000E+01
    diemac    2.00000000E+00
    diemix    1.00000000E-01
      ecut    3.00000000E+01 Hartree
      iscf         5
    istwfk      2
P    mkmem         1
     natom         1
     nband         6
     ngfft        48      48      48
      nkpt         1
     nstep        20
      nsym        48
    ntypat         1
       occ    2.000000  2.000000  2.000000  0.000000  0.000000  0.000000
    occopt         7
   spgroup       221
    symrel    1  0  0   0  1  0   0  0  1      -1  0  0   0 -1  0   0  0 -1
             -1  0  0   0  1  0   0  0 -1       1  0  0   0 -1  0   0  0  1
             -1  0  0   0 -1  0   0  0  1       1  0  0   0  1  0   0  0 -1
              1  0  0   0 -1  0   0  0 -1      -1  0  0   0  1  0   0  0  1
              0  1  0   1  0  0   0  0  1       0 -1  0  -1  0  0   0  0 -1
              0 -1  0   1  0  0   0  0 -1       0  1  0  -1  0  0   0  0  1
              0 -1  0  -1  0  0   0  0  1       0  1  0   1  0  0   0  0 -1
              0  1  0  -1  0  0   0  0 -1       0 -1  0   1  0  0   0  0  1
              0  0  1   1  0  0   0  1  0       0  0 -1  -1  0  0   0 -1  0
              0  0 -1   1  0  0   0 -1  0       0  0  1  -1  0  0   0  1  0
              0  0 -1  -1  0  0   0  1  0       0  0  1   1  0  0   0 -1  0
              0  0  1  -1  0  0   0 -1  0       0  0 -1   1  0  0   0  1  0
              1  0  0   0  0  1   0  1  0      -1  0  0   0  0 -1   0 -1  0
             -1  0  0   0  0  1   0 -1  0       1  0  0   0  0 -1   0  1  0
             -1  0  0   0  0 -1   0  1  0       1  0  0   0  0  1   0 -1  0
              1  0  0   0  0 -1   0 -1  0      -1  0  0   0  0  1   0  1  0
              0  1  0   0  0  1   1  0  0       0 -1  0   0  0 -1  -1  0  0
              0 -1  0   0  0  1  -1  0  0       0  1  0   0  0 -1   1  0  0
              0 -1  0   0  0 -1   1  0  0       0  1  0   0  0  1  -1  0  0
              0  1  0   0  0 -1  -1  0  0       0 -1  0   0  0  1   1  0  0
              0  0  1   0  1  0   1  0  0       0  0 -1   0 -1  0  -1  0  0
              0  0 -1   0  1  0  -1  0  0       0  0  1   0 -1  0   1  0  0
              0  0 -1   0 -1  0   1  0  0       0  0  1   0  1  0  -1  0  0
              0  0  1   0 -1  0  -1  0  0       0  0 -1   0  1  0   1  0  0
    tolvrs    1.00000000E-05
     typat    1
     znucl     24.00000

================================================================================

 chkinp: Checking input parameters for consistency.

================================================================================
== DATASET  1 ==================================================================

 Real(R)+Recip(G) space primitive vectors, cartesian coordinates (Bohr,Bohr^-1):
 R(1)=  9.0010000  0.0000000  0.0000000  G(1)=  0.1110988  0.0000000  0.0000000
 R(2)=  0.0000000  9.0010000  0.0000000  G(2)=  0.0000000  0.1110988  0.0000000
 R(3)=  0.0000000  0.0000000  9.0010000  G(3)=  0.0000000  0.0000000  0.1110988
 Unit cell volume ucvol=  7.2924303E+02 bohr^3
 Angles (23,13,12)=  9.00000000E+01  9.00000000E+01  9.00000000E+01 degrees

 getcut: wavevector=  0.0000  0.0000  0.0000  ngfft=  48  48  48
         ecut(hartree)=     30.000   => boxcut(ratio)=   2.16284

--- Pseudopotential description ------------------------------------------------
- pspini: atom type   1  psp file is /home/gonze/ABINIT/ABINITv5.6.3/test_gcc43/5.6.3-private/tests/Psps_for_tests/24cr.000107.fhi
- pspatm: opening atomic psp file    /home/gonze/ABINIT/ABINITv5.6.3/test_gcc43/5.6.3-private/tests/Psps_for_tests/24cr.000107.fhi
 Cromium fhi98PP : TM-type, LDA CA PerdewWang, l=0 local (by Alessio Filipetti)
  24.00000   6.00000       107                znucl, zion, pspdat
    6    1    2    0       517   0.00000      pspcod,pspxc,lmax,lloc,mmax,r2well
    5.00000000000000    1.00000000000000    0.00000000000000   rchrg,fchrg,qchrg
  1.024700          amesh (Hamman grid)
 pspatm: epsatm=   62.59871360
         --- l  ekb(1:nproj) -->
             1    3.154537
             2  -10.409887
 pspatm: atomic psp has been read  and splines computed

   3.75592282E+02                                ecore*ucvol(ha*bohr**3)
--------------------------------------------------------------------------------

P newkpt: treating      6 bands with npw=    2872 for ikpt=   1

 setup2: Arith. and geom. avg. npw (full set) are    5743.000    5743.000

================================================================================

     iter   Etot(hartree)      deltaE(h)  residm     vres2    diffor    maxfor
 ETOT  1  -16.036954257156    -1.604E+01 2.898E-01 7.733E+02 0.000E+00 0.000E+00
 ETOT  2  -15.377912434252     6.590E-01 2.358E-01 4.897E+03 0.000E+00 0.000E+00
 ETOT  3  -15.611440357540    -2.335E-01 1.352E-01 4.104E+03 0.000E+00 0.000E+00
 ETOT  4  -16.443246275043    -8.318E-01 2.619E-02 1.244E+03 0.000E+00 0.000E+00
 ETOT  5  -16.701633404747    -2.584E-01 2.055E-03 1.060E+02 0.000E+00 0.000E+00
 ETOT  6  -16.676341117229     2.529E-02 7.319E-04 1.576E+02 0.000E+00 0.000E+00
 ETOT  7  -16.725599636909    -4.926E-02 1.794E-04 1.507E+01 0.000E+00 0.000E+00
 ETOT  8  -16.727561313684    -1.962E-03 3.364E-06 6.087E+00 0.000E+00 0.000E+00
 ETOT  9  -16.727743159983    -1.818E-04 4.717E-07 4.228E+00 0.000E+00 0.000E+00
 ETOT 10  -16.728060043350    -3.169E-04 8.586E-07 2.375E-01 0.000E+00 0.000E+00
 ETOT 11  -16.728062161695    -2.118E-06 4.684E-08 1.555E-01 0.000E+00 0.000E+00
 ETOT 12  -16.728063457476    -1.296E-06 3.552E-08 6.913E-03 0.000E+00 0.000E+00
 ETOT 13  -16.728064548221    -1.091E-06 4.346E-09 3.064E-02 0.000E+00 0.000E+00
 ETOT 14  -16.728065470851    -9.226E-07 4.667E-09 1.880E-02 0.000E+00 0.000E+00
 ETOT 15  -16.728065960272    -4.894E-07 6.194E-09 1.101E-03 0.000E+00 0.000E+00
 ETOT 16  -16.728066005253    -4.498E-08 1.178E-10 7.555E-04 0.000E+00 0.000E+00
 ETOT 17  -16.728066041542    -3.629E-08 4.886E-11 4.731E-04 0.000E+00 0.000E+00
 ETOT 18  -16.728066043051    -1.509E-09 1.125E-11 4.212E-04 0.000E+00 0.000E+00
 ETOT 19  -16.728066047681    -4.630E-09 7.708E-12 2.457E-04 0.000E+00 0.000E+00
 ETOT 20  -16.728066052586    -4.906E-09 3.226E-11 6.343E-06 0.000E+00 0.000E+00

 At SCF step   20       vres2   =  6.34E-06 < tolvrs=  1.00E-05 =>converged.

 Cartesian components of stress tensor (hartree/bohr^3)
  sigma(1 1)=  1.66286897E-03  sigma(3 2)=  0.00000000E+00
  sigma(2 2)=  1.66286897E-03  sigma(3 1)=  0.00000000E+00
  sigma(3 3)=  1.66286897E-03  sigma(2 1)=  0.00000000E+00

================================================================================

 ----iterations are completed or convergence reached----

 Mean square residual over all n,k,spin=   2.2359E-11; max=  3.2260E-11
   0.0000  0.0000  0.0000    1  3.22596E-11 kpt; spin; max resid(k); each band:
 9.78E-12 1.36E-11 1.55E-11 3.14E-11 3.23E-11 3.16E-11
 reduced coordinates (array xred) for    1 atoms
       0.000000000000      0.000000000000      0.000000000000
 rms dE/dt=  0.0000E+00; max dE/dt=  0.0000E+00; dE/dt below (all hartree)
    1       0.000000000000      0.000000000000      0.000000000000

 cartesian coordinates (angstrom) at end:
    1      0.00000000000000     0.00000000000000     0.00000000000000

 cartesian forces (hartree/bohr) at end:
    1     -0.00000000000000    -0.00000000000000    -0.00000000000000
 frms,max,avg= 0.0000000E+00 0.0000000E+00   0.000E+00  0.000E+00  0.000E+00 h/b

 cartesian forces (eV/Angstrom) at end:
    1     -0.00000000000000    -0.00000000000000    -0.00000000000000
 frms,max,avg= 0.0000000E+00 0.0000000E+00   0.000E+00  0.000E+00  0.000E+00 e/A
 length scales=  9.001000000000  9.001000000000  9.001000000000 bohr
              =  4.763124054519  4.763124054519  4.763124054519 angstroms
 prteigrs : about to open file t56o_EIG
 Fermi (or HOMO) energy (hartree) =  -0.20337   Average Vxc (hartree)=  -0.18868
 Eigenvalues (hartree) for nkpt=   1  k points:
 kpt#   1, nband=  6, wtk=  1.00000, kpt=  0.0000  0.0000  0.0000 (reduced coord)
  -0.23285  -0.20085  -0.20085  -0.19668  -0.19668  -0.19668
      occupation numbers for kpt#   1
   1.70274   0.92895   0.92895   0.81312   0.81312   0.81312
 Total charge density [el/Bohr^3]
,     Maximum=    5.3178E-01  at reduced coord.    0.0000    0.9375    0.9583
,Next maximum=    5.3178E-01  at reduced coord.    0.0000    0.0625    0.9583
,     Minimum=    3.6305E-04  at reduced coord.    0.5000    0.5000    0.5000
,Next minimum=    3.6448E-04  at reduced coord.    0.5000    0.5000    0.4792

--------------------------------------------------------------------------------
 Components of total free energy (in Hartree) :

    Kinetic energy  =  1.78476111040781E+01
    Hartree energy  =  3.78134170570929E+00
    XC energy       = -1.03793360039651E+01
    Ewald energy    = -5.67396451845919E+00
    PspCore energy  =  5.15044049345106E-01
    Loc. psp. energy= -2.83397229047268E+00
    NL   psp  energy= -1.98608881927035E+01
    >>>>> Internal E= -1.66041641464680E+01

    -kT*entropy     = -1.23901906118392E-01
    >>>>>>>>> Etotal= -1.67280660525864E+01

 Other information on the energy :
    Total energy(eV)= -4.55193826592363E+02 ; Band energy (Ha)=  -1.2494067784E+00
--------------------------------------------------------------------------------

 Cartesian components of stress tensor (hartree/bohr^3)
  sigma(1 1)=  1.66286897E-03  sigma(3 2)=  0.00000000E+00
  sigma(2 2)=  1.66286897E-03  sigma(3 1)=  0.00000000E+00
  sigma(3 3)=  1.66286897E-03  sigma(2 1)=  0.00000000E+00

-Cartesian components of stress tensor (GPa)         [Pressure= -4.8923E+01 GPa]
- sigma(1 1)=  4.89232858E+01  sigma(3 2)=  0.00000000E+00
- sigma(2 2)=  4.89232858E+01  sigma(3 1)=  0.00000000E+00
- sigma(3 3)=  4.89232858E+01  sigma(2 1)=  0.00000000E+00

== END DATASET(S) ==============================================================
================================================================================
  
 -outvars: echo values of variables after computation  --------
     acell    9.0010000000E+00  9.0010000000E+00  9.0010000000E+00 Bohr
       amu    5.19961000E+01
    diemac    2.00000000E+00
    diemix    1.00000000E-01
      ecut    3.00000000E+01 Hartree
    etotal   -1.6728066053E+01
     fcart   -0.0000000000E+00 -0.0000000000E+00 -0.0000000000E+00
      iscf         5
    istwfk      2
P    mkmem         1
     natom         1
     nband         6
     ngfft        48      48      48
      nkpt         1
     nstep        20
      nsym        48
    ntypat         1
       occ    1.702745  0.928953  0.928953  0.813116  0.813116  0.813116
    occopt         7
   spgroup       221
    strten    1.6628689656E-03  1.6628689656E-03  1.6628689656E-03
              0.0000000000E+00  0.0000000000E+00  0.0000000000E+00
    symrel    1  0  0   0  1  0   0  0  1      -1  0  0   0 -1  0   0  0 -1
             -1  0  0   0  1  0   0  0 -1       1  0  0   0 -1  0   0  0  1
             -1  0  0   0 -1  0   0  0  1       1  0  0   0  1  0   0  0 -1
              1  0  0   0 -1  0   0  0 -1      -1  0  0   0  1  0   0  0  1
              0  1  0   1  0  0   0  0  1       0 -1  0  -1  0  0   0  0 -1
              0 -1  0   1  0  0   0  0 -1       0  1  0  -1  0  0   0  0  1
              0 -1  0  -1  0  0   0  0  1       0  1  0   1  0  0   0  0 -1
              0  1  0  -1  0  0   0  0 -1       0 -1  0   1  0  0   0  0  1
              0  0  1   1  0  0   0  1  0       0  0 -1  -1  0  0   0 -1  0
              0  0 -1   1  0  0   0 -1  0       0  0  1  -1  0  0   0  1  0
              0  0 -1  -1  0  0   0  1  0       0  0  1   1  0  0   0 -1  0
              0  0  1  -1  0  0   0 -1  0       0  0 -1   1  0  0   0  1  0
              1  0  0   0  0  1   0  1  0      -1  0  0   0  0 -1   0 -1  0
             -1  0  0   0  0  1   0 -1  0       1  0  0   0  0 -1   0  1  0
             -1  0  0   0  0 -1   0  1  0       1  0  0   0  0  1   0 -1  0
              1  0  0   0  0 -1   0 -1  0      -1  0  0   0  0  1   0  1  0
              0  1  0   0  0  1   1  0  0       0 -1  0   0  0 -1  -1  0  0
              0 -1  0   0  0  1  -1  0  0       0  1  0   0  0 -1   1  0  0
              0 -1  0   0  0 -1   1  0  0       0  1  0   0  0  1  -1  0  0
              0  1  0   0  0 -1  -1  0  0       0 -1  0   0  0  1   1  0  0
              0  0  1   0  1  0   1  0  0       0  0 -1   0 -1  0  -1  0  0
              0  0 -1   0  1  0  -1  0  0       0  0  1   0 -1  0   1  0  0
              0  0 -1   0 -1  0   1  0  0       0  0  1   0  1  0  -1  0  0
              0  0  1   0 -1  0  -1  0  0       0  0 -1   0  1  0   1  0  0
    tolvrs    1.00000000E-05
     typat    1
     znucl     24.00000

================================================================================

- Total cpu        time (s,m,h):          6.7        0.11      0.002
- Total wall clock time (s,m,h):          6.7        0.11      0.002

- For major independent code sections, cpu and wall times (sec),
- as well as % of the total time and number of calls 

- routine                 cpu     %       wall     %      number of calls 
-                                                          (-1=no count)
- fourwf(pot)            2.526  37.7      2.529  37.8            653
- symrhg(no FFT)         0.498   7.4      0.499   7.5             20
- forces                 0.487   7.3      0.484   7.2             20
- fourdp                 0.451   6.7      0.456   6.8            101
- timing timab           0.349   5.2      0.348   5.2             11
- pspini                 0.295   4.4      0.295   4.4              1
- xc:pot/=fourdp         0.277   4.1      0.276   4.1             21
- fourwf(den)            0.266   4.0      0.273   4.1            115
- nonlop(apply)          0.231   3.4      0.229   3.4            653
- mkcore                 0.138   2.1      0.141   2.1             22
- projbd                 0.135   2.0      0.131   2.0           1042
- invars2                0.099   1.5      0.099   1.5              1
- mkrho/=                0.088   1.3      0.073   1.1             40
- nonlop(forces)         0.047   0.7      0.046   0.7            120
- vtorho  (1)            0.046   0.7      0.049   0.7             20
- vtorho(4)-mkrho-       0.041   0.6      0.043   0.6             40
- vtowfk(ssdiag)         0.036   0.5      0.032   0.5             -1
- getghc-other           0.035   0.5      0.043   0.6             -1
- 52   others            0.131   2.0      0.144   2.2

- subtotal               6.176  92.2      6.190  92.4

================================================================================

 Calculation completed.
.Delivered    3 WARNINGs and   0 COMMENTs to log file.
+Overall time at end (sec) : cpu=          6.7  wall=          6.7
