
.Version 5.6.4  of ABINIT 
.(sequential version, prepared for a x86_64_linux_gcc4.3 computer) 

.Copyright (C) 1998-2008 ABINIT group . 
 ABINIT comes with ABSOLUTELY NO WARRANTY.
 It is free software, and you are welcome to redistribute it
 under certain conditions (GNU General Public License,
 see ~abinit/COPYING or http://www.gnu.org/copyleft/gpl.txt).

 ABINIT is a project of the Universite Catholique de Louvain,
 Corning Inc. and other collaborators, see ~abinit/doc/developers/contributors.txt .
 Please read ~abinit/doc/users/acknowledgments.html for suggested
 acknowledgments of the ABINIT effort.
 For more information, see http://www.abinit.org .

.Starting date : Wed 19 Nov 2008.
  
- input  file    -> /home/gonze/ABINIT/ABINITv5.6.4/trunk/5.6.4-private/tests/v2/Input/t86.in
- output file    -> t86.out
- root for input  files -> t86i
- root for output files -> t86o


 Symmetries : space group Im -3 m (#229); Bravais cI (body-center cubic)
================================================================================
 Values of the parameters that define the memory need of the present run
   intxc =         1  ionmov =         0    iscf =         5 xclevel =         1
  lmnmax =         9   lnmax =         9   mband =        18  mffmem =         1
P  mgfft =        24   mkmem =         1 mpssoang=         5     mpw =       459
  mqgrid =      3001   natom =         1    nfft =     13824    nkpt =         1
  nloalg =         4  nspden =         1 nspinor =         2  nsppol =         1
    nsym =        48  n1xccc =         0  ntypat =         1  occopt =         7
================================================================================
P This job should need less than                       5.079 Mbytes of memory.
  Rough estimation (10% accuracy) of disk space for files :
  WF disk file :      0.128 Mbytes ; DEN or POT disk file :      0.107 Mbytes.
================================================================================

 -outvars: echo values of preprocessed input variables --------
     acell    1.2000000000E+01  1.2000000000E+01  1.2000000000E+01 Bohr
       amu    1.80947900E+02
      ecut    5.00000000E+00 Hartree
    enunit         2
     intxc         1
      iscf         5
    istwfk      1
       ixc         2
P    mkmem         1
     natom         1
     nband        18
     ngfft        24      24      24
      nkpt         1
     nline         5
   nspinor         2
     nstep        10
      nsym        48
    ntypat         1
       occ    1.000000  1.000000  1.000000  1.000000  1.000000  0.000000
              0.000000  0.000000  0.000000  0.000000  0.000000  0.000000
              0.000000  0.000000  0.000000  0.000000  0.000000  0.000000
    occopt         7
     rprim    5.0000000000E-01  5.0000000000E-01 -5.0000000000E-01
             -5.0000000000E-01  5.0000000000E-01  5.0000000000E-01
              5.0000000000E-01 -5.0000000000E-01  5.0000000000E-01
   spgroup       229
    symrel    1  0  0   0  1  0   0  0  1      -1  0  0   0 -1  0   0  0 -1
             -1 -1 -1   0  0  1   0  1  0       1  1  1   0  0 -1   0 -1  0
              0  1  0   1  0  0  -1 -1 -1       0 -1  0  -1  0  0   1  1  1
              0  0  1  -1 -1 -1   1  0  0       0  0 -1   1  1  1  -1  0  0
              0  1  0   1  0  0   0  0  1       0 -1  0  -1  0  0   0  0 -1
             -1 -1 -1   0  0  1   1  0  0       1  1  1   0  0 -1  -1  0  0
              1  0  0   0  1  0  -1 -1 -1      -1  0  0   0 -1  0   1  1  1
              0  0  1  -1 -1 -1   0  1  0       0  0 -1   1  1  1   0 -1  0
             -1 -1 -1   1  0  0   0  0  1       1  1  1  -1  0  0   0  0 -1
              0  1  0   0  0  1   1  0  0       0 -1  0   0  0 -1  -1  0  0
              1  0  0  -1 -1 -1   0  1  0      -1  0  0   1  1  1   0 -1  0
              0  0  1   0  1  0  -1 -1 -1       0  0 -1   0 -1  0   1  1  1
              1  0  0  -1 -1 -1   0  0  1      -1  0  0   1  1  1   0  0 -1
              0  1  0   0  0  1  -1 -1 -1       0 -1  0   0  0 -1   1  1  1
             -1 -1 -1   1  0  0   0  1  0       1  1  1  -1  0  0   0 -1  0
              0  0  1   0  1  0   1  0  0       0  0 -1   0 -1  0  -1  0  0
              0  1  0  -1 -1 -1   0  0  1       0 -1  0   1  1  1   0  0 -1
              1  0  0   0  0  1  -1 -1 -1      -1  0  0   0  0 -1   1  1  1
             -1 -1 -1   0  1  0   1  0  0       1  1  1   0 -1  0  -1  0  0
              0  0  1   1  0  0   0  1  0       0  0 -1  -1  0  0   0 -1  0
             -1 -1 -1   0  1  0   0  0  1       1  1  1   0 -1  0   0  0 -1
              1  0  0   0  0  1   0  1  0      -1  0  0   0  0 -1   0 -1  0
              0  1  0  -1 -1 -1   1  0  0       0 -1  0   1  1  1  -1  0  0
              0  0  1   1  0  0  -1 -1 -1       0  0 -1  -1  0  0   1  1  1
    toldfe    1.00000000E-07 Hartree
    tsmear    1.00000000E-02 Hartree
     typat    1
     znucl     73.00000

================================================================================

 chkinp: Checking input parameters for consistency.

================================================================================
== DATASET  1 ==================================================================

 Real(R)+Recip(G) space primitive vectors, cartesian coordinates (Bohr,Bohr^-1):
 R(1)=  6.0000000  6.0000000 -6.0000000  G(1)=  0.0833333  0.0833333  0.0000000
 R(2)= -6.0000000  6.0000000  6.0000000  G(2)=  0.0000000  0.0833333  0.0833333
 R(3)=  6.0000000 -6.0000000  6.0000000  G(3)=  0.0833333  0.0000000  0.0833333
 Unit cell volume ucvol=  8.6400000E+02 bohr^3
 Angles (23,13,12)=  1.09471221E+02  1.09471221E+02  1.09471221E+02 degrees

 getcut: wavevector=  0.0000  0.0000  0.0000  ngfft=  24  24  24
         ecut(hartree)=      5.000   => boxcut(ratio)=   2.29429

 getcut : COMMENT -
  Note that boxcut > 2.2 ; recall that boxcut=Gcut(box)/Gcut(sphere) = 2
  is sufficient for exact treatment of convolution.
  Such a large boxcut is a waste : you could raise ecut
  e.g. ecut=    6.579736 Hartrees makes boxcut=2


--- Pseudopotential description ------------------------------------------------
- pspini: atom type   1  psp file is /home/gonze/ABINIT/ABINITv5.6.4/trunk/5.6.4-private/tests/Psps_for_tests/73ta.tm_so
- pspatm: opening atomic psp file    /home/gonze/ABINIT/ABINITv5.6.4/trunk/5.6.4-private/tests/Psps_for_tests/73ta.tm_so
 pseudo Tantale spin orbite Stephane modifie coulombien r>10
  73.00000   5.00000    990913                znucl, zion, pspdat
    5    2    2    0      1046   0.00000      pspcod,pspxc,lmax,lloc,mmax,r2well
    2.508992E-04    1.250000E-02              r1 and al (Hamman grid)
 Pseudopotential is in spin-orbit format
    0   0.000   0.000    1   2.7600000        l,e99.0,e99.9,nproj,rcpsp
   0.00000000   0.00000000   0.00000000   0.00000000     rms, ekb1, ekb2, epsatm
    1   0.000   0.000    2   3.9100000        l,e99.0,e99.9,nproj,rcpsp
   0.00000000   0.00000000   0.00000000   0.00000000     rms, ekb1, ekb2, epsatm
    1   0.000   0.000    2   3.9100000        l,e99.0,e99.9,nproj,rcpsp
   0.00000000   0.00000000   0.00000000   0.00000000     rms, ekb1, ekb2, epsatm
    2   0.000   0.000    2   1.5700000        l,e99.0,e99.9,nproj,rcpsp
   0.00000000   0.00000000   0.00000000   0.00000000     rms, ekb1, ekb2, epsatm
    2   0.000   0.000    2   1.5700000        l,e99.0,e99.9,nproj,rcpsp
   0.00000000   0.00000000   0.00000000   0.00000000     rms, ekb1, ekb2, epsatm
    0.00000000000000    0.00000000000000    0.00000000000000   rchrg,fchrg,qchrg
 pspatm: epsatm=   75.99540769
         --- l  ekb(1:nproj) -->
             0    0.000000
             1    1.000000    0.500000
             2   -1.000000   -1.500000
  spin-orbit 1   -2.061553    2.061553
  spin-orbit 2    2.061553   -2.061553
 pspatm: atomic psp has been read  and splines computed

   3.79977038E+02                                ecore*ucvol(ha*bohr**3)
--------------------------------------------------------------------------------

P newkpt: treating     18 bands with npw=     459 for ikpt=   1

 setup2: Arith. and geom. avg. npw (full set) are     459.000     459.000

================================================================================

     iter   Etot(hartree)      deltaE(h)  residm     vres2    diffor    maxfor
 ETOT  1  -4.4297209965343    -4.430E+00 2.654E-02 3.838E+01 0.000E+00 0.000E+00
 ETOT  2  -4.4815404711662    -5.182E-02 1.902E-05 3.411E-01 0.000E+00 0.000E+00
 ETOT  3  -4.4818811208994    -3.406E-04 2.904E-07 1.120E-02 0.000E+00 0.000E+00
 ETOT  4  -4.4818791316523     1.989E-06 4.122E-09 2.755E-02 0.000E+00 0.000E+00
 ETOT  5  -4.4818831247520    -3.993E-06 2.092E-09 8.253E-03 0.000E+00 0.000E+00
 ETOT  6  -4.4818849659605    -1.841E-06 3.512E-09 3.699E-04 0.000E+00 0.000E+00
 ETOT  7  -4.4818849682863    -2.326E-09 1.162E-11 2.807E-04 0.000E+00 0.000E+00
 ETOT  8  -4.4818849892675    -2.098E-08 1.100E-11 9.744E-05 0.000E+00 0.000E+00

 At SCF step    8, etot is converged :
  for the second time, diff in etot=  2.098E-08 < toldfe=  1.000E-07

 Cartesian components of stress tensor (hartree/bohr^3)
  sigma(1 1)=  6.88155508E-04  sigma(3 2)=  0.00000000E+00
  sigma(2 2)=  6.88155508E-04  sigma(3 1)=  0.00000000E+00
  sigma(3 3)=  6.88155508E-04  sigma(2 1)=  0.00000000E+00

================================================================================

 ----iterations are completed or convergence reached----

 Mean square residual over all n,k,spin=   3.5675E-12; max=  1.1005E-11
   0.0000  0.0000  0.0000    1  1.10046E-11 kpt; spin; max resid(k); each band:
 1.10E-11 1.10E-11 1.11E-12 1.11E-12 1.14E-12 1.14E-12 1.20E-12 1.21E-12
 7.91E-12 8.07E-12 7.89E-12 8.09E-12 6.26E-13 6.28E-13 4.83E-13 5.78E-13
 4.71E-13 5.54E-13
 reduced coordinates (array xred) for    1 atoms
       0.000000000000      0.000000000000      0.000000000000
 rms dE/dt=  0.0000E+00; max dE/dt=  0.0000E+00; dE/dt below (all hartree)
    1       0.000000000000      0.000000000000      0.000000000000

 cartesian coordinates (angstrom) at end:
    1      0.00000000000000     0.00000000000000     0.00000000000000

 cartesian forces (hartree/bohr) at end:
    1     -0.00000000000000    -0.00000000000000    -0.00000000000000
 frms,max,avg= 0.0000000E+00 0.0000000E+00   0.000E+00  0.000E+00  0.000E+00 h/b

 cartesian forces (eV/Angstrom) at end:
    1     -0.00000000000000    -0.00000000000000    -0.00000000000000
 frms,max,avg= 0.0000000E+00 0.0000000E+00   0.000E+00  0.000E+00  0.000E+00 e/A
 length scales= 12.000000000000 12.000000000000 12.000000000000 bohr
              =  6.350126503080  6.350126503080  6.350126503080 angstroms
 prteigrs : about to open file t86o_EIG
 Fermi (or HOMO) energy (hartree) =  -0.09150   Average Vxc (hartree)=  -0.18368
 Eigenvalues (hartree) for nkpt=   1  k points:
 kpt#   1, nband= 18, wtk=  1.00000, kpt=  0.0000  0.0000  0.0000 (reduced coord)
  -0.25030  -0.25030  -0.09157  -0.09157  -0.09147  -0.09147  -0.09146  -0.09146
  -0.05272  -0.05272  -0.05272  -0.05272  -0.01354  -0.01354   0.02666   0.02666
   0.02666   0.02666
      occupation numbers for kpt#   1
   1.00000   1.00000   0.50401   0.50401   0.49824   0.49824   0.49775   0.49775
   0.00000   0.00000   0.00000   0.00000   0.00000   0.00000   0.00000   0.00000
   0.00000   0.00000
 Fermi (or HOMO) energy (eV) =  -2.48975   Average Vxc (eV)=  -4.99811
 Eigenvalues (   eV  ) for nkpt=   1  k points:
 kpt#   1, nband= 18, wtk=  1.00000, kpt=  0.0000  0.0000  0.0000 (reduced coord)
  -6.81102  -6.81102  -2.49169  -2.49169  -2.48890  -2.48890  -2.48867  -2.48867
  -1.43472  -1.43472  -1.43471  -1.43471  -0.36831  -0.36831   0.72557   0.72557
   0.72557   0.72557
 Total charge density [el/Bohr^3]
,     Maximum=    6.9068E-02  at reduced coord.    0.8333    0.8333    0.8333
,Next maximum=    6.9068E-02  at reduced coord.    0.0000    0.0000    0.8333
,     Minimum=    4.4231E-04  at reduced coord.    0.0000    0.0000    0.0000
,Next minimum=    4.9072E-04  at reduced coord.    0.6667    0.5000    0.1667

--------------------------------------------------------------------------------
 Components of total free energy (in Hartree) :

    Kinetic energy  =  3.07227424940779E+00
    Hartree energy  =  6.79988594878997E-01
    XC energy       = -1.12939546628732E+00
    Ewald energy    = -3.79086817657133E+00
    PspCore energy  =  4.39788238949310E-01
    Loc. psp. energy= -1.46078374944580E+00
    NL   psp  energy= -2.27596341906578E+00
    >>>>> Internal E= -4.46495972813413E+00

    -kT*entropy     = -1.69252611333732E-02
    >>>>>>>>> Etotal= -4.48188498926751E+00

 Other information on the energy :
    Total energy(eV)= -1.21958292859330E+02 ; Band energy (Ha)=  -7.7509188232E-01
--------------------------------------------------------------------------------

 Cartesian components of stress tensor (hartree/bohr^3)
  sigma(1 1)=  6.88155508E-04  sigma(3 2)=  0.00000000E+00
  sigma(2 2)=  6.88155508E-04  sigma(3 1)=  0.00000000E+00
  sigma(3 3)=  6.88155508E-04  sigma(2 1)=  0.00000000E+00

-Cartesian components of stress tensor (GPa)         [Pressure= -2.0246E+01 GPa]
- sigma(1 1)=  2.02462306E+01  sigma(3 2)=  0.00000000E+00
- sigma(2 2)=  2.02462306E+01  sigma(3 1)=  0.00000000E+00
- sigma(3 3)=  2.02462306E+01  sigma(2 1)=  0.00000000E+00

== END DATASET(S) ==============================================================
================================================================================
  
 -outvars: echo values of variables after computation  --------
     acell    1.2000000000E+01  1.2000000000E+01  1.2000000000E+01 Bohr
       amu    1.80947900E+02
      ecut    5.00000000E+00 Hartree
    enunit         2
    etotal   -4.4818849893E+00
     fcart   -0.0000000000E+00 -0.0000000000E+00 -0.0000000000E+00
     intxc         1
      iscf         5
    istwfk      1
       ixc         2
P    mkmem         1
     natom         1
     nband        18
     ngfft        24      24      24
      nkpt         1
     nline         5
   nspinor         2
     nstep        10
      nsym        48
    ntypat         1
       occ    1.000000  1.000000  0.504010  0.504010  0.498237  0.498237
              0.497752  0.497752  0.000000  0.000000  0.000000  0.000000
              0.000000  0.000000  0.000000  0.000000  0.000000  0.000000
    occopt         7
     rprim    5.0000000000E-01  5.0000000000E-01 -5.0000000000E-01
             -5.0000000000E-01  5.0000000000E-01  5.0000000000E-01
              5.0000000000E-01 -5.0000000000E-01  5.0000000000E-01
   spgroup       229
    strten    6.8815550840E-04  6.8815550840E-04  6.8815550840E-04
              0.0000000000E+00  0.0000000000E+00  0.0000000000E+00
    symrel    1  0  0   0  1  0   0  0  1      -1  0  0   0 -1  0   0  0 -1
             -1 -1 -1   0  0  1   0  1  0       1  1  1   0  0 -1   0 -1  0
              0  1  0   1  0  0  -1 -1 -1       0 -1  0  -1  0  0   1  1  1
              0  0  1  -1 -1 -1   1  0  0       0  0 -1   1  1  1  -1  0  0
              0  1  0   1  0  0   0  0  1       0 -1  0  -1  0  0   0  0 -1
             -1 -1 -1   0  0  1   1  0  0       1  1  1   0  0 -1  -1  0  0
              1  0  0   0  1  0  -1 -1 -1      -1  0  0   0 -1  0   1  1  1
              0  0  1  -1 -1 -1   0  1  0       0  0 -1   1  1  1   0 -1  0
             -1 -1 -1   1  0  0   0  0  1       1  1  1  -1  0  0   0  0 -1
              0  1  0   0  0  1   1  0  0       0 -1  0   0  0 -1  -1  0  0
              1  0  0  -1 -1 -1   0  1  0      -1  0  0   1  1  1   0 -1  0
              0  0  1   0  1  0  -1 -1 -1       0  0 -1   0 -1  0   1  1  1
              1  0  0  -1 -1 -1   0  0  1      -1  0  0   1  1  1   0  0 -1
              0  1  0   0  0  1  -1 -1 -1       0 -1  0   0  0 -1   1  1  1
             -1 -1 -1   1  0  0   0  1  0       1  1  1  -1  0  0   0 -1  0
              0  0  1   0  1  0   1  0  0       0  0 -1   0 -1  0  -1  0  0
              0  1  0  -1 -1 -1   0  0  1       0 -1  0   1  1  1   0  0 -1
              1  0  0   0  0  1  -1 -1 -1      -1  0  0   0  0 -1   1  1  1
             -1 -1 -1   0  1  0   1  0  0       1  1  1   0 -1  0  -1  0  0
              0  0  1   1  0  0   0  1  0       0  0 -1  -1  0  0   0 -1  0
             -1 -1 -1   0  1  0   0  0  1       1  1  1   0 -1  0   0  0 -1
              1  0  0   0  0  1   0  1  0      -1  0  0   0  0 -1   0 -1  0
              0  1  0  -1 -1 -1   1  0  0       0 -1  0   1  1  1  -1  0  0
              0  0  1   1  0  0  -1 -1 -1       0  0 -1  -1  0  0   1  1  1
    toldfe    1.00000000E-07 Hartree
    tsmear    1.00000000E-02 Hartree
     typat    1
     znucl     73.00000

================================================================================

- Total cpu        time (s,m,h):          6.6        0.11      0.002
- Total wall clock time (s,m,h):          6.6        0.11      0.002

- For major independent code sections, cpu and wall times (sec),
- as well as % of the total time and number of calls 

- routine                 cpu     %       wall     %      number of calls 
-                                                          (-1=no count)
- fourwf(pot)            2.317  35.2      2.265  34.4           1864
- pspini                 2.009  30.5      2.010  30.5              1
- nonlop(apply)          0.491   7.5      0.546   8.3            932
- projbd                 0.303   4.6      0.292   4.4           1504
- vtowfk(ssdiag)         0.298   4.5      0.298   4.5             -1
- nonlop(forces)         0.244   3.7      0.245   3.7            144
- invars2                0.188   2.9      0.188   2.9              1
- timing timab           0.145   2.2      0.145   2.2              6
- fourwf(den)            0.068   1.0      0.079   1.2            194
- getghc-other           0.053   0.8      0.068   1.0             -1
- fourdp                 0.035   0.5      0.039   0.6             77
- 59   others            0.196   3.0      0.177   2.7

- subtotal               6.347  96.4      6.352  96.4

================================================================================

 Calculation completed.
.Delivered    0 WARNINGs and   2 COMMENTs to log file.
+Overall time at end (sec) : cpu=          6.6  wall=          6.6
