
.Version 5.6.5  of ABINIT 
.(sequential version, prepared for a x86_64_linux_gcc4.3 computer) 

.Copyright (C) 1998-2008 ABINIT group . 
 ABINIT comes with ABSOLUTELY NO WARRANTY.
 It is free software, and you are welcome to redistribute it
 under certain conditions (GNU General Public License,
 see ~abinit/COPYING or http://www.gnu.org/copyleft/gpl.txt).

 ABINIT is a project of the Universite Catholique de Louvain,
 Corning Inc. and other collaborators, see ~abinit/doc/developers/contributors.txt .
 Please read ~abinit/doc/users/acknowledgments.html for suggested
 acknowledgments of the ABINIT effort.
 For more information, see http://www.abinit.org .

.Starting date : Sun  1 Feb 2009.
  
- input  file    -> /home/gonze/ABINIT/ABINITv5.6.5/5.6.5-public/tests/v2/Input/t87.in
- output file    -> t87.out
- root for input  files -> t87i
- root for output files -> t87o


 Symmetries : space group P1 (#  1); Bravais aP (primitive triclinic)
================================================================================
 Values of the parameters that define the memory need of the present run
   intxc =         0  ionmov =         8    iscf =         5 xclevel =         1
  lmnmax =         2   lnmax =         2   mband =         6  mffmem =         1
P  mgfft =        16   mkmem =         1 mpssoang=         2     mpw =        90
  mqgrid =      3001   natom =         2    nfft =      4096    nkpt =         1
  nloalg =         4  nspden =         1 nspinor =         1  nsppol =         1
    nsym =         1  n1xccc =         0  ntypat =         1  occopt =         3
================================================================================
P This job should need less than                       2.024 Mbytes of memory.
  Rough estimation (10% accuracy) of disk space for files :
  WF disk file :      0.010 Mbytes ; DEN or POT disk file :      0.033 Mbytes.
================================================================================

 -outvars: echo values of preprocessed input variables --------
     acell    8.0000000000E+00  8.0000000000E+00  8.0000000000E+00 Bohr
       amu    7.25900000E+01
    diemac    1.00000000E+00
    diemix    3.33000000E-01
     dtion    2.00000000E+02
      ecut    4.00000000E+00 Hartree
    ionmov         8
      iscf         5
    istwfk      2
       ixc         7
   mdftemp    5.00000000E+02
   mditemp    1.00000000E+03
P    mkmem         1
     natom         2
     nband         6
     ngfft        16      16      16
      nkpt         1
     nline        10
 noseinert    1.00001000E+05
     nstep        50
      nsym         1
     ntime         3
    ntypat         1
       occ    2.000000  2.000000  2.000000  2.000000  0.000000  0.000000
    occopt         3
   spgroup         1
    tolvrs    1.00000000E-02
    tsmear    2.00000000E-03 Hartree
     typat    1  1
    xangst    1.0583544172E+00  2.1167088344E+00  2.1167088344E+00
              3.4872778046E+00  2.1167088344E+00  2.1167088344E+00
     xcart    2.0000000000E+00  4.0000000000E+00  4.0000000000E+00
              6.5900000000E+00  4.0000000000E+00  4.0000000000E+00
      xred    2.5000000000E-01  5.0000000000E-01  5.0000000000E-01
              8.2375000000E-01  5.0000000000E-01  5.0000000000E-01
     znucl     32.00000

================================================================================

 chkinp: Checking input parameters for consistency.

================================================================================
== DATASET  1 ==================================================================

 Real(R)+Recip(G) space primitive vectors, cartesian coordinates (Bohr,Bohr^-1):
 R(1)=  8.0000000  0.0000000  0.0000000  G(1)=  0.1250000  0.0000000  0.0000000
 R(2)=  0.0000000  8.0000000  0.0000000  G(2)=  0.0000000  0.1250000  0.0000000
 R(3)=  0.0000000  0.0000000  8.0000000  G(3)=  0.0000000  0.0000000  0.1250000
 Unit cell volume ucvol=  5.1200000E+02 bohr^3
 Angles (23,13,12)=  9.00000000E+01  9.00000000E+01  9.00000000E+01 degrees

 getcut: wavevector=  0.0000  0.0000  0.0000  ngfft=  16  16  16
         ecut(hartree)=      4.000   => boxcut(ratio)=   2.22144

 getcut : COMMENT -
  Note that boxcut > 2.2 ; recall that boxcut=Gcut(box)/Gcut(sphere) = 2
  is sufficient for exact treatment of convolution.
  Such a large boxcut is a waste : you could raise ecut
  e.g. ecut=    4.934802 Hartrees makes boxcut=2


--- Pseudopotential description ------------------------------------------------
- pspini: atom type   1  psp file is /home/gonze/ABINIT/ABINITv5.6.5/5.6.5-public/tests/Psps_for_tests/32ge_lda.fhi
- pspatm: opening atomic psp file    /home/gonze/ABINIT/ABINITv5.6.5/5.6.5-public/tests/Psps_for_tests/32ge_lda.fhi
 Germanium, fhi98PP : Troullier Martins-type, LDA  PW+x, l=1 local
  32.00000   4.00000    140700                znucl, zion, pspdat
    6    7    1    1       529   0.00000      pspcod,pspxc,lmax,lloc,mmax,r2well
    0.00000000000000    0.00000000000000    0.00000000000000   rchrg,fchrg,qchrg
  1.024700          amesh (Hamman grid)
 pspatm: epsatm=   21.87011590
         --- l  ekb(1:nproj) -->
             0    8.047411
 pspatm: atomic psp has been read  and splines computed

   3.49921854E+02                                ecore*ucvol(ha*bohr**3)
--------------------------------------------------------------------------------

P newkpt: treating      6 bands with npw=      90 for ikpt=   1

 setup2: Arith. and geom. avg. npw (full set) are     179.000     179.000

================================================================================

 MOLDYN STEP NUMBER    0  ------------------------------------------------------

     iter   Etot(hartree)      deltaE(h)  residm     vres2    diffor    maxfor
 ETOT  1  -7.5418873391894    -7.542E+00 4.325E-03 5.641E+00 1.900E-01 1.900E-01
 ETOT  2  -7.5621658870685    -2.028E-02 7.089E-09 5.365E-01 9.125E-02 2.813E-01
 ETOT  3  -7.5627208334086    -5.549E-04 1.057E-05 6.067E-01 1.705E-02 2.983E-01
 ETOT  4  -7.5636513109764    -9.305E-04 1.077E-05 1.846E-01 4.807E-03 2.935E-01
 ETOT  5  -7.5639885212584    -3.372E-04 9.759E-06 3.989E-02 2.699E-03 2.962E-01
 ETOT  6  -7.5629063322131     1.082E-03 9.528E-07 1.092E-01 1.567E-02 2.955E-01
 ETOT  7  -7.5641583632047    -1.252E-03 3.534E-07 4.991E-03 1.254E-02 2.960E-01

 At SCF step    7       vres2   =  4.99E-03 < tolvrs=  1.00E-02 =>converged.

 Cartesian components of stress tensor (hartree/bohr^3)
  sigma(1 1)= -1.70735518E-03  sigma(3 2)=  3.21209478E-07
  sigma(2 2)=  1.68285760E-04  sigma(3 1)=  9.90468418E-07
  sigma(3 3)=  1.67708749E-04  sigma(2 1)=  8.55920843E-07

 Rescaling or initializing velocities to initial temperature
 ---  Scaling factor :   1.63769274145686E+00 Asked T (K)   1.00000000000000E+03
 ---  Effective temperature  1.00000000000000E+03
 converged velocities for T=3.1668154E-03
 Cartesian coordinates (bohr)
  2.07446140253546E+00  4.04958381134502E+00  4.00392894445845E+00
  6.52531990967307E+00  3.96010973028694E+00  3.97963729804530E+00
 Velocities (bohr/(atomic time unit))
  5.91195151049826E-04  2.46304039029803E-04  1.99201609027746E-05
 -5.42680863235089E-04 -1.98225084115472E-04 -1.01429883121381E-04
 Cartesian forces (hart/bohr); max,rms= 2.95966E-01 1.70876E-01 (free atoms)
  2.95965773384559E-01  4.98236553772006E-04  5.77601984494408E-04
 -2.95965773384559E-01 -4.98236553772006E-04 -5.77601984494408E-04

 At the end of Moldyn step     0, ham= -7.51390198566000E+00 Ha.
 At the end of Moldyn step     0, POT.En.= -7.56415836320472E+00 Ha.
                              KIN+POT.En.= -7.51422888373627E+00 Ha.

 MOLDYN STEP NUMBER    1  ------------------------------------------------------

     iter   Etot(hartree)      deltaE(h)  residm     vres2    diffor    maxfor
 ETOT  1  -7.5873928429981    -7.587E+00 6.108E-09 2.030E+00 5.183E-02 2.441E-01
 ETOT  2  -7.5675408719776     1.985E-02 6.111E-10 2.828E+00 1.172E-01 1.992E-01
 ETOT  3  -7.5978980097372    -3.036E-02 8.065E-05 5.826E-01 7.329E-02 2.341E-01
 ETOT  4  -7.5984596947700    -5.617E-04 9.423E-05 1.385E-01 2.991E-02 2.042E-01
 ETOT  5  -7.5900562897069     8.403E-03 6.889E-06 8.072E-01 5.673E-02 2.116E-01
 ETOT  6  -7.5996456254408    -9.589E-03 3.964E-06 1.989E-02 4.153E-02 2.063E-01
 ETOT  7  -7.5997077977961    -6.217E-05 7.652E-07 3.254E-03 3.302E-03 2.096E-01

 At SCF step    7       vres2   =  3.25E-03 < tolvrs=  1.00E-02 =>converged.

 Cartesian components of stress tensor (hartree/bohr^3)
  sigma(1 1)= -1.81598567E-03  sigma(3 2)= -2.68159237E-08
  sigma(2 2)=  2.89306116E-04  sigma(3 1)= -8.45514806E-06
  sigma(3 3)=  2.90418297E-04  sigma(2 1)= -3.02032637E-05

 converged velocities for T=2.6390128E-03
 Cartesian coordinates (bohr)
  2.23647806041993E+00  4.09852161561192E+00  4.00796806436111E+00
  6.37292765470596E+00  3.92070996635381E+00  3.95942804675145E+00
 Velocities (bohr/(atomic time unit))
  9.32832543896861E-04  2.42973089298875E-04  2.12752870768875E-05
 -8.86483324415566E-04 -1.97039774926305E-04 -9.91474392848414E-05
 Cartesian forces (hart/bohr); max,rms= 2.09639E-01 1.21182E-01 (free atoms)
  2.09638547392926E-01  1.00267594306130E-02  2.50546373700264E-03
 -2.09638547392926E-01 -1.00267594306130E-02 -2.50546373700264E-03

 At the end of Moldyn step     1, ham= -7.47515004932352E+00 Ha.
 At the end of Moldyn step     1, POT.En.= -7.59970779779607E+00 Ha.
                              KIN+POT.En.= -7.48298706750970E+00 Ha.

 MOLDYN STEP NUMBER    2  ------------------------------------------------------

     iter   Etot(hartree)      deltaE(h)  residm     vres2    diffor    maxfor
 ETOT  1  -7.6298944436263    -7.630E+00 5.725E-08 3.319E+00 1.132E-01 9.649E-02
 ETOT  2  -7.6399907973254    -1.010E-02 4.325E-10 9.011E-01 3.710E-02 7.780E-02
 ETOT  3  -7.6418269344409    -1.836E-03 4.197E-05 2.493E-01 1.096E-02 6.841E-02
 ETOT  4  -7.6424713509287    -6.444E-04 4.974E-05 8.215E-03 1.024E-02 5.816E-02

 At SCF step    4       vres2   =  8.21E-03 < tolvrs=  1.00E-02 =>converged.

 Cartesian components of stress tensor (hartree/bohr^3)
  sigma(1 1)= -2.02851558E-03  sigma(3 2)= -3.20065031E-06
  sigma(2 2)=  4.68163851E-04  sigma(3 1)= -4.81397846E-06
  sigma(3 3)=  4.70102239E-04  sigma(2 1)= -1.81316275E-05

 converged velocities for T=2.1112103E-03
 Cartesian coordinates (bohr)
  2.44759442009421E+00  4.14677304706457E+00  4.01243905928920E+00
  6.17072657990684E+00  3.88129382031641E+00  3.93997832233137E+00
 Velocities (bohr/(atomic time unit))
  1.01210070212691E-03  2.30619580394547E-04  2.32318858155586E-05
 -9.71069079763991E-04 -1.89956146785414E-04 -9.21698480454147E-05
 Cartesian forces (hart/bohr); max,rms= 5.81645E-02 3.43931E-02 (free atoms)
  5.81644515263007E-02  1.22876891682022E-02  3.81615500018623E-03
 -5.81644515263007E-02 -1.22876891682022E-02 -3.81615500018623E-03

 At the end of Moldyn step     2, ham= -7.46654163118075E+00 Ha.
 At the end of Moldyn step     2, POT.En.= -7.64247135092872E+00 Ha.
                              KIN+POT.En.= -7.50580589810540E+00 Ha.

 MOLDYN STEP NUMBER    3  ------------------------------------------------------

     iter   Etot(hartree)      deltaE(h)  residm     vres2    diffor    maxfor
 ETOT  1  -7.6042356990394    -7.604E+00 1.750E-07 6.060E+00 1.117E-01 6.702E-02
 ETOT  2  -7.6285261042545    -2.429E-02 1.917E-09 9.069E-01 5.543E-02 9.757E-02
 ETOT  3  -7.6308175044413    -2.291E-03 4.072E-05 2.226E-01 1.779E-02 1.113E-01
 ETOT  4  -7.6314825116475    -6.650E-04 2.762E-05 2.759E-02 1.130E-02 1.215E-01
 ETOT  5  -7.6314839760088    -1.464E-06 4.525E-07 3.091E-02 3.834E-03 1.230E-01
 ETOT  6  -7.6313897272140     9.425E-05 5.156E-07 4.406E-02 2.303E-03 1.219E-01
 ETOT  7  -7.6316217812876    -2.321E-04 1.938E-07 1.437E-02 5.229E-03 1.218E-01
 ETOT  8  -7.6316354539461    -1.367E-05 4.477E-08 9.399E-03 9.628E-04 1.219E-01

 At SCF step    8       vres2   =  9.40E-03 < tolvrs=  1.00E-02 =>converged.

 Cartesian components of stress tensor (hartree/bohr^3)
  sigma(1 1)= -1.96143931E-03  sigma(3 2)= -3.94559917E-06
  sigma(2 2)=  4.04419755E-04  sigma(3 1)=  1.45609604E-05
  sigma(3 3)=  4.10924070E-04  sigma(2 1)=  5.28815317E-05

 converged velocities for T=1.5834077E-03
 Cartesian coordinates (bohr)
  2.64131834127070E+00  4.19076944776974E+00  4.01726081868733E+00
  5.98450002280037E+00  3.84472750763965E+00  3.92256010753328E+00
 Velocities (bohr/(atomic time unit))
  7.76865994816578E-04  2.10347952697323E-04  2.54086275882688E-05
 -7.43639651776834E-04 -1.77419759356088E-04 -8.12328004969153E-05
 Cartesian forces (hart/bohr); max,rms= 1.21922E-01 7.17116E-02 (free atoms)
 -1.21921896867557E-01  2.29422467536875E-02  6.03113780788863E-03
  1.21921896867557E-01 -2.29422467536875E-02 -6.03113780788863E-03

 At the end of Moldyn step     3, ham= -7.46381613369362E+00 Ha.
 At the end of Moldyn step     3, POT.En.= -7.63163545394610E+00 Ha.
                              KIN+POT.En.= -7.54962870116517E+00 Ha.
Nb time steps     4
step      1
atom      1  2.50000000000000E-01  5.00000000000000E-01  5.00000000000000E-01
atom      2  8.23750000000000E-01  5.00000000000000E-01  5.00000000000000E-01
step      2
atom      1  2.59307675316933E-01  5.06197976418128E-01  5.00491118057306E-01
atom      2  8.15664988709133E-01  4.95013716285867E-01  4.97454662255663E-01
step      3
atom      1  2.79559757552491E-01  5.12315201951490E-01  5.00996008045139E-01
atom      2  7.96615956838246E-01  4.90088745794226E-01  4.94928505843931E-01
step      4
atom      1  3.05949302511776E-01  5.18346630883071E-01  5.01554882411150E-01
atom      2  7.71340822488355E-01  4.85161727539552E-01  4.92497290291421E-01
================================================================================

 ----iterations are completed or convergence reached----

 Mean square residual over all n,k,spin=   1.9420E-08; max=  4.4773E-08
   0.0000  0.0000  0.0000    1  4.47733E-08 kpt; spin; max resid(k); each band:
 4.48E-08 4.41E-08 2.17E-09 2.85E-09 1.60E-09 2.11E-08
 reduced coordinates (array xred) for    2 atoms
       0.330164792659      0.523846180971      0.502157602336
       0.748062502850      0.480590938455      0.490320013442
 rms dE/dt=  5.7369E-01; max dE/dt=  9.7539E-01; dE/dt below (all hartree)
    1       0.975389434261     -0.183513523615     -0.048292335094
    2      -0.975360915619      0.183562424444      0.048205869832

 cartesian coordinates (angstrom) at end:
    1      1.39772546683120     2.21765967821505     2.12584286621094
    2      3.16686101687229     2.03454217028194     2.07572940823095

 cartesian forces (hartree/bohr) at end:
    1     -0.12192189686756     0.02294224675369     0.00603113780789
    2      0.12192189686756    -0.02294224675369    -0.00603113780789
 frms,max,avg= 7.1711622E-02 1.2192190E-01  -1.782E-06 -3.056E-06  5.404E-06 h/b

 cartesian forces (eV/Angstrom) at end:
    1     -6.26947548523940     1.17973766233973     0.31013354947826
    2      6.26947548523940    -1.17973766233973    -0.31013354947826
 frms,max,avg= 3.6875596E+00 6.2694755E+00  -9.166E-05 -1.572E-04  2.779E-04 e/A
 length scales=  8.000000000000  8.000000000000  8.000000000000 bohr
              =  4.233417668720  4.233417668720  4.233417668720 angstroms
 prteigrs : about to open file t87o_EIG
 Fermi (or HOMO) energy (hartree) =  -0.06972   Average Vxc (hartree)=  -0.24542
 Eigenvalues (hartree) for nkpt=   1  k points:
 kpt#   1, nband=  6, wtk=  1.00000, kpt=  0.0000  0.0000  0.0000 (reduced coord)
  -0.43654  -0.16978  -0.07525  -0.07035  -0.06957   0.07002
      occupation numbers for kpt#   1
   2.00000   2.00000   1.88168   1.15528   0.96304   0.00000
 Total charge density [el/Bohr^3]
,     Maximum=    1.1910E-01  at reduced coord.    0.5625    0.5000    0.5000
,Next maximum=    1.1408E-01  at reduced coord.    0.5000    0.5000    0.5000
,     Minimum=    6.5675E-05  at reduced coord.    0.5625    0.0000    0.0000
,Next minimum=    6.8592E-05  at reduced coord.    0.5000    0.0000    0.0000

--------------------------------------------------------------------------------
 Components of total free energy (in Hartree) :

    Kinetic energy  =  3.12980849585767E+00
    Hartree energy  =  1.66968297892923E+00
    XC energy       = -2.29149174058097E+00
    Ewald energy    = -5.83854255833934E+00
    PspCore energy  =  6.83441121904023E-01
    Loc. psp. energy= -5.05265502426369E+00
    NL   psp  energy=  7.45139025561180E-02
    >>>>> Internal E= -7.62524282393696E+00

    -kT*entropy     = -6.39263000914327E-03
    >>>>>>>>> Etotal= -7.63163545394610E+00

 Other information on the energy :
    Total energy(eV)= -2.07667361816913E+02 ; Band energy (Ha)=  -1.5025189444E+00
--------------------------------------------------------------------------------
 rms coord change=  4.6902E-02   atom, delta coord (reduced):
     1        0.080164792659      0.023846180971      0.002157602336
     2       -0.075687497150     -0.019409061545     -0.009679986558

 Cartesian components of stress tensor (hartree/bohr^3)
  sigma(1 1)= -1.96143931E-03  sigma(3 2)= -3.94559917E-06
  sigma(2 2)=  4.04419755E-04  sigma(3 1)=  1.45609604E-05
  sigma(3 3)=  4.10924070E-04  sigma(2 1)=  5.28815317E-05

-Cartesian components of stress tensor (GPa)         [Pressure=  1.1240E+01 GPa]
- sigma(1 1)= -5.77075271E+01  sigma(3 2)= -1.16083516E-01
- sigma(2 2)=  1.18984380E+01  sigma(3 1)=  4.28398175E-01
- sigma(3 3)=  1.20898015E+01  sigma(2 1)=  1.55582812E+00

== END DATASET(S) ==============================================================
================================================================================
  
 -outvars: echo values of variables after computation  --------
     acell    8.0000000000E+00  8.0000000000E+00  8.0000000000E+00 Bohr
       amu    7.25900000E+01
    diemac    1.00000000E+00
    diemix    3.33000000E-01
     dtion    2.00000000E+02
      ecut    4.00000000E+00 Hartree
    etotal   -7.6316354539E+00
     fcart   -1.2192189687E-01  2.2942246754E-02  6.0311378079E-03
              1.2192189687E-01 -2.2942246754E-02 -6.0311378079E-03
    ionmov         8
      iscf         5
    istwfk      2
       ixc         7
   mdftemp    5.00000000E+02
   mditemp    1.00000000E+03
P    mkmem         1
     natom         2
     nband         6
     ngfft        16      16      16
      nkpt         1
     nline        10
 noseinert    1.00001000E+05
     nstep        50
      nsym         1
     ntime         3
    ntypat         1
       occ    2.000000  2.000000  1.881679  1.155284  0.963038  0.000000
    occopt         3
   spgroup         1
    strten   -1.9614393092E-03  4.0441975549E-04  4.1092407045E-04
             -3.9455991666E-06  1.4560960444E-05  5.2881531705E-05
    tolvrs    1.00000000E-02
    tsmear    2.00000000E-03 Hartree
     typat    1  1
       vel    7.7686599482E-04  2.1034795270E-04  2.5408627588E-05
             -7.4363965178E-04 -1.7741975936E-04 -8.1232800497E-05
    xangst    1.3977254668E+00  2.2176596782E+00  2.1258428662E+00
              3.1668610169E+00  2.0345421703E+00  2.0757294082E+00
     xcart    2.6413183413E+00  4.1907694478E+00  4.0172608187E+00
              5.9845000228E+00  3.8447275076E+00  3.9225601075E+00
      xred    3.3016479266E-01  5.2384618097E-01  5.0215760234E-01
              7.4806250285E-01  4.8059093845E-01  4.9032001344E-01
     znucl     32.00000

================================================================================

- Total cpu        time (s,m,h):          1.6        0.03      0.000
- Total wall clock time (s,m,h):          1.6        0.03      0.000

- For major independent code sections, cpu and wall times (sec),
- as well as % of the total time and number of calls 

- routine                 cpu     %       wall     %      number of calls 
-                                                          (-1=no count)
- pspini                 0.463  28.4      0.463  28.4              1
- invars2                0.294  18.0      0.295  18.1              1
- fourwf(pot)            0.160   9.8      0.154   9.4           1051
- timing timab           0.105   6.4      0.105   6.4              8
- abinit(2)              0.085   5.2      0.085   5.2              1
- vtorho(4)-mkrho-       0.061   3.7      0.059   3.6             52
- forces                 0.042   2.6      0.044   2.7             26
- xc:pot/=fourdp         0.031   1.9      0.034   2.1             30
- ewald                  0.027   1.7      0.027   1.7              4
- nonlop(apply)          0.019   1.2      0.018   1.1           1051
- status                 0.014   0.9      0.007   0.4            916
- vtowfk(ssdiag)         0.014   0.9      0.010   0.6             -1
- stress                 0.014   0.9      0.015   0.9              4
- ewald2                 0.013   0.8      0.013   0.8              4
- fourdp                 0.011   0.7      0.006   0.4             64
- getghc-other           0.011   0.7      0.017   1.0             -1
- fourwf(den)            0.011   0.7      0.014   0.9            130
- projbd                 0.008   0.5      0.015   0.9           1694
- 52   others            0.024   1.5      0.020   1.2

- subtotal               1.407  86.2      1.401  85.8

================================================================================

 Calculation completed.
.Delivered    1 WARNINGs and   6 COMMENTs to log file.
+Overall time at end (sec) : cpu=          1.6  wall=          1.6
