
.Version 5.6.3  of ABINIT 
.(sequential version, prepared for a x86_64_linux_gcc4.3 computer) 

.Copyright (C) 1998-2008 ABINIT group . 
 ABINIT comes with ABSOLUTELY NO WARRANTY.
 It is free software, and you are welcome to redistribute it
 under certain conditions (GNU General Public License,
 see ~abinit/COPYING or http://www.gnu.org/copyleft/gpl.txt).

 ABINIT is a project of the Universite Catholique de Louvain,
 Corning Inc. and other collaborators, see ~abinit/doc/developers/contributors.txt .
 Please read ~abinit/doc/users/acknowledgments.html for suggested
 acknowledgments of the ABINIT effort.
 For more information, see http://www.abinit.org .

.Starting date : Thu  6 Nov 2008.
  
- input  file    -> /home/gonze/ABINIT/ABINITv5.6.3/test_gcc43/5.6.3-private/tests/v2/Input/t88.in
- output file    -> t88.out
- root for input  files -> t88i
- root for output files -> t88o


 Symmetries : space group P1 (#  1); Bravais aP (primitive triclinic)
================================================================================
 Values of the parameters that define the memory need of the present run
   intxc =         0  ionmov =         9    iscf =         5 xclevel =         1
  lmnmax =         2   lnmax =         2   mband =         6  mffmem =         1
P  mgfft =        16   mkmem =         1 mpssoang=         2     mpw =        90
  mqgrid =      3001   natom =         2    nfft =      4096    nkpt =         1
  nloalg =         4  nspden =         1 nspinor =         1  nsppol =         1
    nsym =         1  n1xccc =         0  ntypat =         1  occopt =         3
================================================================================
P This job should need less than                       2.024 Mbytes of memory.
  Rough estimation (10% accuracy) of disk space for files :
  WF disk file :      0.010 Mbytes ; DEN or POT disk file :      0.033 Mbytes.
================================================================================

 -outvars: echo values of preprocessed input variables --------
     acell    8.0000000000E+00  8.0000000000E+00  8.0000000000E+00 Bohr
       amu    7.25900000E+01
 delayperm    200000
    diemac    1.00000000E+00
    diemix    3.33000000E-01
     dtion    2.00000000E+02
      ecut    4.00000000E+00 Hartree
  friction    1.50000000E-03
    ionmov         9
      iscf         5
    istwfk      2
       ixc         7
   mdftemp    5.00000000E+02
   mditemp    1.00000000E+03
    mdwall    1.00000000E+00 Bohr
P    mkmem         1
     natom         2
     nband         6
     ngfft        16      16      16
      nkpt         1
     nline        10
     nstep        50
      nsym         1
     ntime         3
    ntypat         1
       occ    2.000000  2.000000  2.000000  2.000000  0.000000  0.000000
    occopt         3
   spgroup         1
    tolvrs    1.00000000E-02
    tsmear    2.00000000E-03 Hartree
     typat    1  1
    xangst    1.0583544172E+00  2.1167088344E+00  2.1167088344E+00
              3.4872778046E+00  2.1167088344E+00  2.1167088344E+00
     xcart    2.0000000000E+00  4.0000000000E+00  4.0000000000E+00
              6.5900000000E+00  4.0000000000E+00  4.0000000000E+00
      xred    2.5000000000E-01  5.0000000000E-01  5.0000000000E-01
              8.2375000000E-01  5.0000000000E-01  5.0000000000E-01
     znucl     32.00000

================================================================================

 chkinp: Checking input parameters for consistency.

================================================================================
== DATASET  1 ==================================================================

 Real(R)+Recip(G) space primitive vectors, cartesian coordinates (Bohr,Bohr^-1):
 R(1)=  8.0000000  0.0000000  0.0000000  G(1)=  0.1250000  0.0000000  0.0000000
 R(2)=  0.0000000  8.0000000  0.0000000  G(2)=  0.0000000  0.1250000  0.0000000
 R(3)=  0.0000000  0.0000000  8.0000000  G(3)=  0.0000000  0.0000000  0.1250000
 Unit cell volume ucvol=  5.1200000E+02 bohr^3
 Angles (23,13,12)=  9.00000000E+01  9.00000000E+01  9.00000000E+01 degrees

 getcut: wavevector=  0.0000  0.0000  0.0000  ngfft=  16  16  16
         ecut(hartree)=      4.000   => boxcut(ratio)=   2.22144

 getcut : COMMENT -
  Note that boxcut > 2.2 ; recall that boxcut=Gcut(box)/Gcut(sphere) = 2
  is sufficient for exact treatment of convolution.
  Such a large boxcut is a waste : you could raise ecut
  e.g. ecut=    4.934802 Hartrees makes boxcut=2


--- Pseudopotential description ------------------------------------------------
- pspini: atom type   1  psp file is /home/gonze/ABINIT/ABINITv5.6.3/test_gcc43/5.6.3-private/tests/Psps_for_tests/32ge_lda.fhi
- pspatm: opening atomic psp file    /home/gonze/ABINIT/ABINITv5.6.3/test_gcc43/5.6.3-private/tests/Psps_for_tests/32ge_lda.fhi
 Germanium, fhi98PP : Troullier Martins-type, LDA  PW+x, l=1 local
  32.00000   4.00000    140700                znucl, zion, pspdat
    6    7    1    1       529   0.00000      pspcod,pspxc,lmax,lloc,mmax,r2well
    0.00000000000000    0.00000000000000    0.00000000000000   rchrg,fchrg,qchrg
  1.024700          amesh (Hamman grid)
 pspatm: epsatm=   21.87011590
         --- l  ekb(1:nproj) -->
             0    8.047411
 pspatm: atomic psp has been read  and splines computed

   3.49921854E+02                                ecore*ucvol(ha*bohr**3)
--------------------------------------------------------------------------------

P newkpt: treating      6 bands with npw=      90 for ikpt=   1

 setup2: Arith. and geom. avg. npw (full set) are     179.000     179.000

================================================================================

 MOLDYN STEP NUMBER    0  ------------------------------------------------------

     iter   Etot(hartree)      deltaE(h)  residm     vres2    diffor    maxfor
 ETOT  1  -7.5418873391894    -7.542E+00 4.325E-03 5.641E+00 1.900E-01 1.900E-01
 ETOT  2  -7.5621658870685    -2.028E-02 7.089E-09 5.365E-01 9.125E-02 2.813E-01
 ETOT  3  -7.5627208334086    -5.549E-04 1.057E-05 6.067E-01 1.705E-02 2.983E-01
 ETOT  4  -7.5636513109764    -9.305E-04 1.077E-05 1.846E-01 4.807E-03 2.935E-01
 ETOT  5  -7.5639885212584    -3.372E-04 9.759E-06 3.989E-02 2.699E-03 2.962E-01
 ETOT  6  -7.5629063322131     1.082E-03 9.528E-07 1.092E-01 1.567E-02 2.955E-01
 ETOT  7  -7.5641583632047    -1.252E-03 3.534E-07 4.991E-03 1.254E-02 2.960E-01

 At SCF step    7       vres2   =  4.99E-03 < tolvrs=  1.00E-02 =>converged.

 Cartesian components of stress tensor (hartree/bohr^3)
  sigma(1 1)= -1.70735518E-03  sigma(3 2)=  3.21209478E-07
  sigma(2 2)=  1.68285760E-04  sigma(3 1)=  9.90468418E-07
  sigma(3 3)=  1.67708749E-04  sigma(2 1)=  8.55920843E-07

 Rescaling or initializing velocities to initial temperature
 ---  Scaling factor :  0.16377D+01 Asked T (K)  0.10000D+04
 ---  Effective temperature 0.10000D+04
 Cartesian coordinates (bohr)
  2.05577672631827E+00  4.03975495875679E+00  4.01819800247376E+00
  6.52419348400827E+00  3.95610317939716E+00  3.98260178340165E+00
 Velocities (bohr/(atomic time unit))
  4.09128630754481E-04  1.50007060066770E-04  1.62771810014578E-04
 -5.58333088531762E-04 -2.39893386687042E-04 -7.26051637792127E-05
 Cartesian forces (hart/bohr); max,rms= 2.95966E-01 1.70876E-01 (free atoms)
  2.95965773384559E-01  4.98236553772006E-04  5.77601984494408E-04
 -2.95965773384559E-01 -4.98236553772006E-04 -5.77601984494408E-04

 At the end of Moldyn step     0, POT.En.= -7.56415836320472E+00 Ha.
                              KIN+POT.En.= -7.52506079887223E+00 Ha.
           TEMP         TKA =  1.00000000000000E+03    4.11533977098039E+00
                       EKIN =  3.90975643324883E-02

 MOLDYN STEP NUMBER    1  ------------------------------------------------------

     iter   Etot(hartree)      deltaE(h)  residm     vres2    diffor    maxfor
 ETOT  1  -7.5839895473974    -7.584E+00 4.549E-09 1.809E+00 4.650E-02 2.521E-01
 ETOT  2  -7.5622909419183     2.170E-02 1.067E-09 2.941E+00 1.137E-01 2.082E-01
 ETOT  3  -7.5943338171951    -3.204E-02 6.760E-05 4.816E-01 7.091E-02 2.423E-01
 ETOT  4  -7.5943482389107    -1.442E-05 7.578E-05 1.623E-01 2.872E-02 2.135E-01
 ETOT  5  -7.5958402140812    -1.492E-03 3.697E-06 9.037E-03 1.819E-02 2.203E-01

 At SCF step    5       vres2   =  9.04E-03 < tolvrs=  1.00E-02 =>converged.

 Cartesian components of stress tensor (hartree/bohr^3)
  sigma(1 1)= -1.81555624E-03  sigma(3 2)= -3.70026761E-06
  sigma(2 2)=  2.74517054E-04  sigma(3 1)= -1.53207270E-05
  sigma(3 3)=  2.73633093E-04  sigma(2 1)= -3.45396973E-05

 Cartesian coordinates (bohr)
  2.16426065081582E+00  4.05158065888060E+00  4.04597417848319E+00
  6.39495681672104E+00  3.91689285020015E+00  3.96234835439252E+00
 Velocities (bohr/(atomic time unit))
  6.72664621650870E-04  1.03607669018355E-05  2.10662677692905E-04
 -8.75483845009216E-04 -2.16460929657861E-04 -8.68812258331048E-05
 Cartesian forces (hart/bohr); max,rms= 2.20257E-01 1.27207E-01 (free atoms)
  2.20256800840064E-01  5.36616165979357E-03  1.76697626470525E-03
 -2.20256800840064E-01 -5.36616165979357E-03 -1.76697626470525E-03

 At the end of Moldyn step     1, POT.En.= -7.59584021408116E+00 Ha.
                              KIN+POT.En.= -7.50864966648510E+00 Ha.
           TEMP         TKA =  8.33333333333333E+02    1.10130255212072E+01
                       EKIN =  8.71905475960569E-02

 MOLDYN STEP NUMBER    2  ------------------------------------------------------

     iter   Etot(hartree)      deltaE(h)  residm     vres2    diffor    maxfor
 ETOT  1  -7.6227667706609    -7.623E+00 2.374E-08 2.372E+00 8.928E-02 1.310E-01
 ETOT  2  -7.6152637948533     7.503E-03 1.473E-09 1.756E+00 7.518E-02 9.983E-02
 ETOT  3  -7.6325560311531    -1.729E-02 1.032E-04 7.295E-01 4.943E-02 1.198E-01
 ETOT  4  -7.6341903156749    -1.634E-03 1.336E-04 4.279E-02 1.818E-02 1.016E-01
 ETOT  5  -7.6343379966653    -1.477E-04 6.350E-06 6.829E-02 4.193E-03 1.058E-01
 ETOT  6  -7.6344125171763    -7.452E-05 7.075E-06 1.861E-02 5.629E-03 1.014E-01
 ETOT  7  -7.6345560265224    -1.435E-04 1.672E-07 4.841E-03 5.868E-03 1.010E-01

 At SCF step    7       vres2   =  4.84E-03 < tolvrs=  1.00E-02 =>converged.

 Cartesian components of stress tensor (hartree/bohr^3)
  sigma(1 1)= -2.03007232E-03  sigma(3 2)=  8.50890491E-07
  sigma(2 2)=  4.47263739E-04  sigma(3 1)= -1.31735928E-05
  sigma(3 3)=  4.51033704E-04  sigma(2 1)= -2.39374742E-05

 Cartesian coordinates (bohr)
  2.28333141592108E+00  4.05137163140014E+00  4.09154453865663E+00
  6.22443859312274E+00  3.87311302568668E+00  3.96039240991548E+00
 Velocities (bohr/(atomic time unit))
  7.28644817259555E-04 -9.19236968500269E-05  2.03960870899742E-04
 -9.40441365895851E-04 -1.75057381865356E-04 -3.84417036516233E-05
 Cartesian forces (hart/bohr); max,rms= 1.00991E-01 5.87883E-02 (free atoms)
  1.00991313107752E-01  9.47292836357027E-03  8.90037569010419E-03
 -1.00991313107752E-01 -9.47292836357027E-03 -8.90037569010419E-03

 At the end of Moldyn step     2, POT.En.= -7.63455602652243E+00 Ha.
                              KIN+POT.En.= -7.53547709861149E+00 Ha.
           TEMP         TKA =  6.66666666666667E+02    1.56433064102355E+01
                       EKIN =  9.90789279109437E-02

 MOLDYN STEP NUMBER    3  ------------------------------------------------------

     iter   Etot(hartree)      deltaE(h)  residm     vres2    diffor    maxfor
 ETOT  1  -7.6358682938663    -7.636E+00 6.937E-08 2.227E+00 9.447E-02 4.332E-02
 ETOT  2  -7.6346248553846     1.243E-03 2.430E-09 1.101E+00 7.314E-02 2.982E-02
 ETOT  3  -7.6447360229476    -1.011E-02 7.612E-05 5.991E-01 4.159E-02 1.177E-02
 ETOT  4  -7.6461332840696    -1.397E-03 9.320E-05 4.043E-02 1.411E-02 2.304E-02
 ETOT  5  -7.6462228611501    -8.958E-05 8.527E-07 2.308E-02 4.616E-03 2.451E-02
 ETOT  6  -7.6461804627764     4.240E-05 9.315E-07 1.826E-02 8.625E-03 2.533E-02
 ETOT  7  -7.6463297322450    -1.493E-04 1.576E-07 2.064E-03 6.080E-03 2.554E-02

 At SCF step    7       vres2   =  2.06E-03 < tolvrs=  1.00E-02 =>converged.

 Cartesian components of stress tensor (hartree/bohr^3)
  sigma(1 1)= -1.97913953E-03  sigma(3 2)=  6.36437981E-07
  sigma(2 2)=  4.68936301E-04  sigma(3 1)=  5.47517135E-06
  sigma(3 3)=  4.69155681E-04  sigma(2 1)=  7.18655528E-06

 Cartesian coordinates (bohr)
  2.41028731597246E+00  4.03611614627684E+00  4.13017877498786E+00
  6.07667593161717E+00  3.85298686833198E+00  3.95841454297543E+00
 Velocities (bohr/(atomic time unit))
  5.57468704132344E-04 -8.76833299206450E-05  2.10360304830416E-04
 -7.15920580510154E-04 -1.03068979682974E-04  6.72121687476741E-05
 Cartesian forces (hart/bohr); max,rms= 2.55432E-02 1.77679E-02 (free atoms)
 -2.55431808875866E-02  1.43909611249335E-02  9.35641281413024E-03
  2.55431808875866E-02 -1.43909611249335E-02 -9.35641281413024E-03

 At the end of Moldyn step     3, POT.En.= -7.64632973224502E+00 Ha.
                              KIN+POT.En.= -7.58741970831582E+00 Ha.
           TEMP         TKA =  5.00000000000000E+02    1.24015277434445E+01
                       EKIN =  5.89100239291967E-02
================================================================================

 ----iterations are completed or convergence reached----

 Mean square residual over all n,k,spin=   7.4808E-08; max=  1.5764E-07
   0.0000  0.0000  0.0000    1  1.57639E-07 kpt; spin; max resid(k); each band:
 3.88E-08 4.63E-08 1.58E-07 5.33E-08 1.41E-07 1.14E-08
 reduced coordinates (array xred) for    2 atoms
       0.301285914497      0.504514518285      0.516272346873
       0.759584491452      0.481623358541      0.494801817872
 rms dE/dt=  1.4214E-01; max dE/dt=  2.0433E-01; dE/dt below (all hartree)
    1       0.204333790148     -0.115190210463     -0.074795820997
    2      -0.204357104054      0.115065167536      0.074906784029

 cartesian coordinates (angstrom) at end:
    1      1.27546911376619     2.13582067583181     2.18559647512574
    2      3.21563840699921     2.03891283571784     2.09470275829380

 cartesian forces (hartree/bohr) at end:
    1     -0.02554318088759     0.01439096112493     0.00935641281413
    2      0.02554318088759    -0.01439096112493    -0.00935641281413
 frms,max,avg= 1.7767914E-02 2.5543181E-02   1.457E-06  7.815E-06 -6.935E-06 h/b

 cartesian forces (eV/Angstrom) at end:
    1     -1.31348306173190     0.74001291236318     0.48112605098075
    2      1.31348306173190    -0.74001291236318    -0.48112605098075
 frms,max,avg= 9.1366280E-01 1.3134831E+00   7.493E-05  4.019E-04 -3.566E-04 e/A
 length scales=  8.000000000000  8.000000000000  8.000000000000 bohr
              =  4.233417668720  4.233417668720  4.233417668720 angstroms
 prteigrs : about to open file t88o_EIG
 Fermi (or HOMO) energy (hartree) =  -0.06698   Average Vxc (hartree)=  -0.24554
 Eigenvalues (hartree) for nkpt=   1  k points:
 kpt#   1, nband=  6, wtk=  1.00000, kpt=  0.0000  0.0000  0.0000 (reduced coord)
  -0.43157  -0.17207  -0.07392  -0.06726  -0.06693   0.06992
      occupation numbers for kpt#   1
   2.00000   2.00000   1.93977   1.07142   0.98881   0.00000
 Total charge density [el/Bohr^3]
,     Maximum=    1.0686E-01  at reduced coord.    0.5625    0.5000    0.5000
,Next maximum=    1.0662E-01  at reduced coord.    0.5000    0.5000    0.5000
,     Minimum=    9.5332E-05  at reduced coord.    0.3125    0.0000    0.0000
,Next minimum=    9.9648E-05  at reduced coord.    0.7500    0.0000    0.0000

--------------------------------------------------------------------------------
 Components of total free energy (in Hartree) :

    Kinetic energy  =  3.11762490458178E+00
    Hartree energy  =  1.65870308760602E+00
    XC energy       = -2.28817599637144E+00
    Ewald energy    = -5.87289590346360E+00
    PspCore energy  =  6.83441121904023E-01
    Loc. psp. energy= -5.01588998672012E+00
    NL   psp  energy=  7.69382888746521E-02
    >>>>> Internal E= -7.64025448358868E+00

    -kT*entropy     = -6.07524865633600E-03
    >>>>>>>>> Etotal= -7.64632973224502E+00

 Other information on the energy :
    Total energy(eV)= -2.08067213464250E+02 ; Band energy (Ha)=  -1.4889205632E+00
--------------------------------------------------------------------------------
 rms coord change=  3.5113E-02   atom, delta coord (reduced):
     1        0.051285914497      0.004514518285      0.016272346873
     2       -0.064165508548     -0.018376641459     -0.005198182128

 Cartesian components of stress tensor (hartree/bohr^3)
  sigma(1 1)= -1.97913953E-03  sigma(3 2)=  6.36437981E-07
  sigma(2 2)=  4.68936301E-04  sigma(3 1)=  5.47517135E-06
  sigma(3 3)=  4.69155681E-04  sigma(2 1)=  7.18655528E-06

-Cartesian components of stress tensor (GPa)         [Pressure=  1.0210E+01 GPa]
- sigma(1 1)= -5.82282856E+01  sigma(3 2)=  1.87246487E-02
- sigma(2 2)=  1.37965800E+01  sigma(3 1)=  1.61085075E-01
- sigma(3 3)=  1.38030344E+01  sigma(2 1)=  2.11435721E-01

== END DATASET(S) ==============================================================
================================================================================
  
 -outvars: echo values of variables after computation  --------
     acell    8.0000000000E+00  8.0000000000E+00  8.0000000000E+00 Bohr
       amu    7.25900000E+01
 delayperm    200000
    diemac    1.00000000E+00
    diemix    3.33000000E-01
     dtion    2.00000000E+02
      ecut    4.00000000E+00 Hartree
    etotal   -7.6463297322E+00
     fcart   -2.5543180888E-02  1.4390961125E-02  9.3564128141E-03
              2.5543180888E-02 -1.4390961125E-02 -9.3564128141E-03
  friction    1.50000000E-03
    ionmov         9
      iscf         5
    istwfk      2
       ixc         7
   mdftemp    5.00000000E+02
   mditemp    1.00000000E+03
    mdwall    1.00000000E+00 Bohr
P    mkmem         1
     natom         2
     nband         6
     ngfft        16      16      16
      nkpt         1
     nline        10
     nstep        50
      nsym         1
     ntime         3
    ntypat         1
       occ    2.000000  2.000000  1.939775  1.071420  0.988805  0.000000
    occopt         3
   spgroup         1
    strten   -1.9791395347E-03  4.6893630051E-04  4.6915568088E-04
              6.3643798071E-07  5.4751713492E-06  7.1865552817E-06
    tolvrs    1.00000000E-02
    tsmear    2.00000000E-03 Hartree
     typat    1  1
       vel    5.5746870413E-04 -8.7683329921E-05  2.1036030483E-04
             -7.1592058051E-04 -1.0306897968E-04  6.7212168748E-05
    xangst    1.2754691138E+00  2.1358206758E+00  2.1855964751E+00
              3.2156384070E+00  2.0389128357E+00  2.0947027583E+00
     xcart    2.4102873160E+00  4.0361161463E+00  4.1301787750E+00
              6.0766759316E+00  3.8529868683E+00  3.9584145430E+00
      xred    3.0128591450E-01  5.0451451828E-01  5.1627234687E-01
              7.5958449145E-01  4.8162335854E-01  4.9480181787E-01
     znucl     32.00000

================================================================================

- Total cpu        time (s,m,h):          1.1        0.02      0.000
- Total wall clock time (s,m,h):          1.1        0.02      0.000

- For major independent code sections, cpu and wall times (sec),
- as well as % of the total time and number of calls 

- routine                 cpu     %       wall     %      number of calls 
-                                                          (-1=no count)
- timing timab           0.344  31.4      0.345  31.4             11
- pspini                 0.157  14.3      0.158  14.4              1
- fourwf(pot)            0.115  10.5      0.114  10.4           1054
- invars2                0.107   9.8      0.107   9.8              1
- vtorho(4)-mkrho-       0.046   4.2      0.043   3.9             52
- forces                 0.036   3.3      0.035   3.2             26
- abinit(2)              0.031   2.8      0.031   2.8              1
- xc:pot/=fourdp         0.024   2.2      0.027   2.5             30
- ewald                  0.018   1.6      0.018   1.6              4
- stress                 0.015   1.4      0.015   1.4              4
- getghc-other           0.015   1.4      0.013   1.2             -1
- nonlop(apply)          0.014   1.3      0.011   1.0           1054
- ewald2                 0.012   1.1      0.012   1.1              4
- vtowfk(ssdiag)         0.012   1.1      0.007   0.6             -1
- fourwf(den)            0.009   0.8      0.008   0.7            130
- fourdp                 0.008   0.7      0.006   0.5             64
- status                 0.007   0.6      0.005   0.5            916
- projbd                 0.002   0.2      0.012   1.1           1700
- 52   others            0.021   1.9      0.020   1.8

- subtotal               0.993  90.6      0.987  90.0

================================================================================

 Calculation completed.
.Delivered    0 WARNINGs and   6 COMMENTs to log file.
+Overall time at end (sec) : cpu=          1.1  wall=          1.1
