
.Version 5.6.3  of ABINIT 
.(sequential version, prepared for a x86_64_linux_gcc4.3 computer) 

.Copyright (C) 1998-2008 ABINIT group . 
 ABINIT comes with ABSOLUTELY NO WARRANTY.
 It is free software, and you are welcome to redistribute it
 under certain conditions (GNU General Public License,
 see ~abinit/COPYING or http://www.gnu.org/copyleft/gpl.txt).

 ABINIT is a project of the Universite Catholique de Louvain,
 Corning Inc. and other collaborators, see ~abinit/doc/developers/contributors.txt .
 Please read ~abinit/doc/users/acknowledgments.html for suggested
 acknowledgments of the ABINIT effort.
 For more information, see http://www.abinit.org .

.Starting date : Thu  6 Nov 2008.
  
- input  file    -> /home/gonze/ABINIT/ABINITv5.6.3/test_gcc43/5.6.3-private/tests/tutorial/Input/t13.in
- output file    -> t13.out
- root for input  files -> t13i
- root for output files -> t13o


 Symmetries : space group P4/m m m (#123); Bravais tP (primitive tetrag.)
================================================================================
 Values of the parameters that define the memory need of the present run
   intxc =         0  ionmov =         3    iscf =         7 xclevel =         1
  lmnmax =         1   lnmax =         1   mband =         1  mffmem =         1
P  mgfft =        30   mkmem =         1 mpssoang=         1     mpw =       752
  mqgrid =      3001   natom =         2    nfft =     27000    nkpt =         1
  nloalg =         4  nspden =         1 nspinor =         1  nsppol =         1
    nsym =        16  n1xccc =         0  ntypat =         1  occopt =         1
================================================================================
P This job should need less than                       7.888 Mbytes of memory.
  Rough estimation (10% accuracy) of disk space for files :
  WF disk file :      0.013 Mbytes ; DEN or POT disk file :      0.208 Mbytes.
================================================================================

 -outvars: echo values of preprocessed input variables --------
     acell    1.0000000000E+01  1.0000000000E+01  1.0000000000E+01 Bohr
       amu    1.00794000E+00
    diemac    2.00000000E+00
      ecut    1.00000000E+01 Hartree
    ionmov         3
    istwfk      2
P    mkmem         1
     natom         2
     nband         1
     ngfft        30      30      30
      nkpt         1
     nstep        10
      nsym        16
     ntime        10
    ntypat         1
       occ    2.000000
   spgroup       123
    symrel    1  0  0   0  1  0   0  0  1      -1  0  0   0 -1  0   0  0 -1
             -1  0  0   0  1  0   0  0 -1       1  0  0   0 -1  0   0  0  1
             -1  0  0   0 -1  0   0  0  1       1  0  0   0  1  0   0  0 -1
              1  0  0   0 -1  0   0  0 -1      -1  0  0   0  1  0   0  0  1
              1  0  0   0  0  1   0  1  0      -1  0  0   0  0 -1   0 -1  0
             -1  0  0   0  0  1   0 -1  0       1  0  0   0  0 -1   0  1  0
             -1  0  0   0  0 -1   0  1  0       1  0  0   0  0  1   0 -1  0
              1  0  0   0  0 -1   0 -1  0      -1  0  0   0  0  1   0  1  0
    toldff    5.00000000E-05
    tolmxf    5.00000000E-04
     typat    1  1
    xangst   -3.7042404601E-01  0.0000000000E+00  0.0000000000E+00
              3.7042404601E-01  0.0000000000E+00  0.0000000000E+00
     xcart   -7.0000000000E-01  0.0000000000E+00  0.0000000000E+00
              7.0000000000E-01  0.0000000000E+00  0.0000000000E+00
      xred   -7.0000000000E-02  0.0000000000E+00  0.0000000000E+00
              7.0000000000E-02  0.0000000000E+00  0.0000000000E+00
     znucl      1.00000

================================================================================

 chkinp: Checking input parameters for consistency.

================================================================================
== DATASET  1 ==================================================================

 Real(R)+Recip(G) space primitive vectors, cartesian coordinates (Bohr,Bohr^-1):
 R(1)= 10.0000000  0.0000000  0.0000000  G(1)=  0.1000000  0.0000000  0.0000000
 R(2)=  0.0000000 10.0000000  0.0000000  G(2)=  0.0000000  0.1000000  0.0000000
 R(3)=  0.0000000  0.0000000 10.0000000  G(3)=  0.0000000  0.0000000  0.1000000
 Unit cell volume ucvol=  1.0000000E+03 bohr^3
 Angles (23,13,12)=  9.00000000E+01  9.00000000E+01  9.00000000E+01 degrees

 getcut: wavevector=  0.0000  0.0000  0.0000  ngfft=  30  30  30
         ecut(hartree)=     10.000   => boxcut(ratio)=   2.10744

--- Pseudopotential description ------------------------------------------------
- pspini: atom type   1  psp file is /home/gonze/ABINIT/ABINITv5.6.3/test_gcc43/5.6.3-private/tests/Psps_for_tests/01h.pspgth
- pspatm: opening atomic psp file    /home/gonze/ABINIT/ABINITv5.6.3/test_gcc43/5.6.3-private/tests/Psps_for_tests/01h.pspgth
 Goedecker-Teter-Hutter  Wed May  8 14:27:44 EDT 1996
   1.00000   1.00000    960508                znucl, zion, pspdat
    2    1    0    0      2001   0.00000      pspcod,pspxc,lmax,lloc,mmax,r2well
 rloc=   0.2000000
  cc1=  -4.0663326; cc2=   0.6778322; cc3=   0.0000000; cc4=   0.0000000
  rrs=   0.0000000; h1s=   0.0000000; h2s=   0.0000000
  rrp=   0.0000000; h1p=   0.0000000
-  Local part computed in reciprocal space.

 pspatm : COMMENT -
  the projectors are not normalized,
  so that the KB energies are not consistent with
  definition in PRB44, 8503 (1991).
  However, this does not influence the results obtained hereafter.
 pspatm: epsatm=   -0.00480358
         --- l  ekb(1:nproj) -->
 pspatm: atomic psp has been read  and splines computed

  -1.92143215E-02                                ecore*ucvol(ha*bohr**3)
--------------------------------------------------------------------------------

P newkpt: treating      1 bands with npw=     752 for ikpt=   1

 setup2: Arith. and geom. avg. npw (full set) are    1503.000    1503.000

================================================================================

 BROYDEN STEP NUMBER   0  ------------------------------------------------------

     iter   Etot(hartree)      deltaE(h)  residm     vres2    diffor    maxfor
 ETOT  1  -1.1013590048942    -1.101E+00 2.790E-06 8.389E+00 2.480E-02 2.480E-02
 ETOT  2  -1.1036942492547    -2.335E-03 6.079E-10 2.843E-01 1.302E-02 3.782E-02
 ETOT  3  -1.1037171066576    -2.286E-05 1.947E-08 1.545E-02 1.194E-03 3.662E-02
 ETOT  4  -1.1037223545263    -5.248E-06 3.080E-08 2.641E-04 8.484E-04 3.747E-02
 ETOT  5  -1.1037224211663    -6.664E-08 3.790E-10 8.035E-06 6.596E-05 3.740E-02
 ETOT  6  -1.1037224213119    -1.456E-10 1.920E-13 3.970E-07 1.754E-06 3.741E-02
 ETOT  7  -1.1037224213379    -2.605E-11 9.259E-14 9.779E-09 1.418E-06 3.740E-02

 At SCF step    7, forces are converged :
  for the second time, max diff in force=  1.418E-06 < toldff=  5.000E-05

 Cartesian components of stress tensor (hartree/bohr^3)
  sigma(1 1)= -1.64354976E-05  sigma(3 2)=  0.00000000E+00
  sigma(2 2)=  3.60114991E-05  sigma(3 1)=  0.00000000E+00
  sigma(3 3)=  3.60114991E-05  sigma(2 1)=  0.00000000E+00

 Cartesian coordinates (bohr)
 -7.00000000000000E-01  0.00000000000000E+00  0.00000000000000E+00
  7.00000000000000E-01  0.00000000000000E+00  0.00000000000000E+00
 Cartesian forces (hart/bohr); max,rms= 3.74043E-02 2.15954E-02 (free atoms)
 -3.74042929459323E-02 -0.00000000000000E+00 -0.00000000000000E+00
  3.74042929459323E-02 -0.00000000000000E+00 -0.00000000000000E+00

 At the end of Broyden step  0, total energy= -1.10372242133792E+00 Ha.


 BROYDEN STEP NUMBER   1  ------------------------------------------------------

     iter   Etot(hartree)      deltaE(h)  residm     vres2    diffor    maxfor
 ETOT  1  -1.1055395556802    -1.106E+00 2.497E-10 4.973E-02 2.480E-02 1.261E-02
 ETOT  2  -1.1055522370018    -1.268E-05 3.023E-12 1.330E-03 2.024E-04 1.240E-02
 ETOT  3  -1.1055525240950    -2.871E-07 2.475E-09 2.405E-04 2.101E-04 1.261E-02
 ETOT  4  -1.1055525566531    -3.256E-08 1.770E-10 5.268E-06 5.187E-05 1.256E-02
 ETOT  5  -1.1055525570209    -3.678E-10 3.130E-13 8.758E-08 2.693E-06 1.257E-02
 ETOT  6  -1.1055525570220    -1.120E-12 9.726E-16 1.992E-09 9.891E-08 1.257E-02

 At SCF step    6, forces are converged :
  for the second time, max diff in force=  9.891E-08 < toldff=  5.000E-05

 Cartesian components of stress tensor (hartree/bohr^3)
  sigma(1 1)=  2.14754028E-05  sigma(3 2)=  0.00000000E+00
  sigma(2 2)=  3.50015519E-05  sigma(3 1)=  0.00000000E+00
  sigma(3 3)=  3.50015519E-05  sigma(2 1)=  0.00000000E+00

 Cartesian coordinates (bohr)
 -7.37404292945932E-01  0.00000000000000E+00  0.00000000000000E+00
  7.37404292945932E-01  0.00000000000000E+00  0.00000000000000E+00
 Cartesian forces (hart/bohr); max,rms= 1.25652E-02 7.25449E-03 (free atoms)
 -1.25651504937950E-02 -0.00000000000000E+00 -0.00000000000000E+00
  1.25651504937950E-02 -0.00000000000000E+00 -0.00000000000000E+00

 At the end of Broyden step  1, total energy= -1.10555255702201E+00 Ha.


 BROYDEN STEP NUMBER   2  ------------------------------------------------------

     iter   Etot(hartree)      deltaE(h)  residm     vres2    diffor    maxfor
 ETOT  1  -1.1058312013257    -1.106E+00 1.005E-10 1.884E-02 1.273E-02 1.627E-04
 ETOT  2  -1.1058359487269    -4.747E-06 1.103E-12 5.003E-04 1.148E-04 2.775E-04
 ETOT  3  -1.1058360527207    -1.040E-07 8.899E-10 8.926E-05 1.227E-04 1.548E-04
 ETOT  4  -1.1058360642148    -1.149E-08 6.205E-11 1.997E-06 2.954E-05 1.843E-04
 ETOT  5  -1.1058360643513    -1.365E-10 1.158E-13 3.325E-08 1.606E-06 1.827E-04

 At SCF step    5, forces are converged :
  for the second time, max diff in force=  1.606E-06 < toldff=  5.000E-05

 Cartesian components of stress tensor (hartree/bohr^3)
  sigma(1 1)=  4.24046801E-05  sigma(3 2)=  0.00000000E+00
  sigma(2 2)=  3.45803039E-05  sigma(3 1)=  0.00000000E+00
  sigma(3 3)=  3.45803039E-05  sigma(2 1)=  0.00000000E+00

 Cartesian coordinates (bohr)
 -7.60910157593934E-01  0.00000000000000E+00  0.00000000000000E+00
  7.60910157593934E-01  0.00000000000000E+00  0.00000000000000E+00
 Cartesian forces (hart/bohr); max,rms= 1.82705E-04 1.05485E-04 (free atoms)
  1.82705336667681E-04 -0.00000000000000E+00 -0.00000000000000E+00
 -1.82705336667681E-04 -0.00000000000000E+00 -0.00000000000000E+00

 At the end of Broyden step  2, total energy= -1.10583606435129E+00 Ha.


 At Broyd/MD step   2, gradients are converged :
  max grad (force/stress) = 1.8271E-04 < tolmxf= 5.0000E-04 ha/bohr (free atoms)

================================================================================

 ----iterations are completed or convergence reached----

 Mean square residual over all n,k,spin=   1.1578E-13; max=  1.1578E-13
   0.0000  0.0000  0.0000    1  1.15783E-13 kpt; spin; max resid(k); each band:
 1.16E-13
 reduced coordinates (array xred) for    2 atoms
      -0.076091015759      0.000000000000      0.000000000000
       0.076091015759      0.000000000000      0.000000000000
 rms dE/dt=  1.0548E-03; max dE/dt=  1.8271E-03; dE/dt below (all hartree)
    1      -0.001827053367      0.000000000000      0.000000000000
    2       0.001827053367      0.000000000000      0.000000000000

 cartesian coordinates (angstrom) at end:
    1     -0.40265631318334     0.00000000000000     0.00000000000000
    2      0.40265631318334     0.00000000000000     0.00000000000000

 cartesian forces (hartree/bohr) at end:
    1      0.00018270533667    -0.00000000000000    -0.00000000000000
    2     -0.00018270533667    -0.00000000000000    -0.00000000000000
 frms,max,avg= 1.0548498E-04 1.8270534E-04   0.000E+00  0.000E+00  0.000E+00 h/b

 cartesian forces (eV/Angstrom) at end:
    1      0.00939508536768    -0.00000000000000    -0.00000000000000
    2     -0.00939508536768    -0.00000000000000    -0.00000000000000
 frms,max,avg= 5.4242551E-03 9.3950854E-03   0.000E+00  0.000E+00  0.000E+00 e/A
 length scales= 10.000000000000 10.000000000000 10.000000000000 bohr
              =  5.291772085900  5.291772085900  5.291772085900 angstroms
 prteigrs : about to open file t13o_EIG
 Fermi (or HOMO) energy (hartree) =  -0.35518   Average Vxc (hartree)=  -0.07655
 Eigenvalues (hartree) for nkpt=   1  k points:
 kpt#   1, nband=  1, wtk=  1.00000, kpt=  0.0000  0.0000  0.0000 (reduced coord)
  -0.35518
 Total charge density [el/Bohr^3]
,     Maximum=    2.3390E-01  at reduced coord.    0.0000    0.0000    0.0000
,Next maximum=    2.3151E-01  at reduced coord.    0.9667    0.0000    0.0000
,     Minimum=    1.1518E-09  at reduced coord.    0.0667    0.5000    0.5000
,Next minimum=    1.1518E-09  at reduced coord.    0.9333    0.5000    0.5000

--------------------------------------------------------------------------------
 Components of total free energy (in Hartree) :

    Kinetic energy  =  9.49867400598030E-01
    Hartree energy  =  6.78517455887579E-01
    XC energy       = -6.16492591101602E-01
    Ewald energy    =  9.46663102137224E-02
    PspCore energy  = -1.92143215271889E-05
    Loc. psp. energy= -2.21237542562749E+00
    NL   psp  energy=  0.00000000000000E+00
    >>>>>>>>> Etotal= -1.10583606435129E+00

 Other information on the energy :
    Total energy(eV)= -3.00913296332947E+01 ; Band energy (Ha)=  -7.1035374789E-01
--------------------------------------------------------------------------------
 rms coord change=  3.5166E-03   atom, delta coord (reduced):
     1       -0.006091015759      0.000000000000      0.000000000000
     2        0.006091015759      0.000000000000      0.000000000000

 Cartesian components of stress tensor (hartree/bohr^3)
  sigma(1 1)=  4.24046801E-05  sigma(3 2)=  0.00000000E+00
  sigma(2 2)=  3.45803039E-05  sigma(3 1)=  0.00000000E+00
  sigma(3 3)=  3.45803039E-05  sigma(2 1)=  0.00000000E+00

-Cartesian components of stress tensor (GPa)         [Pressure= -1.0941E+00 GPa]
- sigma(1 1)=  1.24758855E+00  sigma(3 2)=  0.00000000E+00
- sigma(2 2)=  1.01738749E+00  sigma(3 1)=  0.00000000E+00
- sigma(3 3)=  1.01738749E+00  sigma(2 1)=  0.00000000E+00

== END DATASET(S) ==============================================================
================================================================================
  
 -outvars: echo values of variables after computation  --------
     acell    1.0000000000E+01  1.0000000000E+01  1.0000000000E+01 Bohr
       amu    1.00794000E+00
    diemac    2.00000000E+00
      ecut    1.00000000E+01 Hartree
    etotal   -1.1058360644E+00
     fcart    1.8270533667E-04 -0.0000000000E+00 -0.0000000000E+00
             -1.8270533667E-04 -0.0000000000E+00 -0.0000000000E+00
    ionmov         3
    istwfk      2
P    mkmem         1
     natom         2
     nband         1
     ngfft        30      30      30
      nkpt         1
     nstep        10
      nsym        16
     ntime        10
    ntypat         1
       occ    2.000000
   spgroup       123
    strten    4.2404680139E-05  3.4580303859E-05  3.4580303859E-05
              0.0000000000E+00  0.0000000000E+00  0.0000000000E+00
    symrel    1  0  0   0  1  0   0  0  1      -1  0  0   0 -1  0   0  0 -1
             -1  0  0   0  1  0   0  0 -1       1  0  0   0 -1  0   0  0  1
             -1  0  0   0 -1  0   0  0  1       1  0  0   0  1  0   0  0 -1
              1  0  0   0 -1  0   0  0 -1      -1  0  0   0  1  0   0  0  1
              1  0  0   0  0  1   0  1  0      -1  0  0   0  0 -1   0 -1  0
             -1  0  0   0  0  1   0 -1  0       1  0  0   0  0 -1   0  1  0
             -1  0  0   0  0 -1   0  1  0       1  0  0   0  0  1   0 -1  0
              1  0  0   0  0 -1   0 -1  0      -1  0  0   0  0  1   0  1  0
    toldff    5.00000000E-05
    tolmxf    5.00000000E-04
     typat    1  1
    xangst   -4.0265631318E-01  0.0000000000E+00  0.0000000000E+00
              4.0265631318E-01  0.0000000000E+00  0.0000000000E+00
     xcart   -7.6091015759E-01  0.0000000000E+00  0.0000000000E+00
              7.6091015759E-01  0.0000000000E+00  0.0000000000E+00
      xred   -7.6091015759E-02  0.0000000000E+00  0.0000000000E+00
              7.6091015759E-02  0.0000000000E+00  0.0000000000E+00
     znucl      1.00000

================================================================================

- Total cpu        time (s,m,h):          1.3        0.02      0.000
- Total wall clock time (s,m,h):          1.3        0.02      0.000

- For major independent code sections, cpu and wall times (sec),
- as well as % of the total time and number of calls 

- routine                 cpu     %       wall     %      number of calls 
-                                                          (-1=no count)
- timing timab           0.509  40.4      0.510  40.4             12
- symrhg(no FFT)         0.105   8.3      0.105   8.3             18
- fourwf(pot)            0.101   8.0      0.105   8.3            108
- invars2                0.099   7.9      0.100   7.9              1
- fourdp                 0.095   7.5      0.091   7.2             93
- xc:pot/=fourdp         0.059   4.7      0.062   4.9             21
- forces                 0.053   4.2      0.051   4.0             18
- abinit(2)              0.028   2.2      0.028   2.2              1
- stress                 0.019   1.5      0.019   1.5              3
- ewald                  0.013   1.0      0.014   1.1              3
- fourwf(den)            0.012   1.0      0.009   0.7             18
- ewald2                 0.009   0.7      0.009   0.7              3
- setsym                 0.007   0.6      0.006   0.5              1
- 57   others            0.031   2.5      0.032   2.5

- subtotal               1.140  90.5      1.141  90.5

================================================================================

 Calculation completed.
.Delivered    6 WARNINGs and   4 COMMENTs to log file.
+Overall time at end (sec) : cpu=          1.3  wall=          1.3
