
.Version 5.6.3  of ABINIT 
.(sequential version, prepared for a x86_64_linux_gcc4.3 computer) 

.Copyright (C) 1998-2008 ABINIT group . 
 ABINIT comes with ABSOLUTELY NO WARRANTY.
 It is free software, and you are welcome to redistribute it
 under certain conditions (GNU General Public License,
 see ~abinit/COPYING or http://www.gnu.org/copyleft/gpl.txt).

 ABINIT is a project of the Universite Catholique de Louvain,
 Corning Inc. and other collaborators, see ~abinit/doc/developers/contributors.txt .
 Please read ~abinit/doc/users/acknowledgments.html for suggested
 acknowledgments of the ABINIT effort.
 For more information, see http://www.abinit.org .

.Starting date : Thu  6 Nov 2008.
  
- input  file    -> /home/gonze/ABINIT/ABINITv5.6.3/test_gcc43/5.6.3-private/tests/tutorial/Input/t14.in
- output file    -> t14.out
- root for input  files -> t14i
- root for output files -> t14o


 Symmetries : space group P4/m m m (#123); Bravais tP (primitive tetrag.)
================================================================================
 Values of the parameters that define the memory need of the present run
   intxc =         0  ionmov =         0    iscf =         7 xclevel =         1
  lmnmax =         1   lnmax =         1   mband =         2  mffmem =         1
P  mgfft =        30   mkmem =         1 mpssoang=         1     mpw =       752
  mqgrid =      3001   natom =         2    nfft =     27000    nkpt =         1
  nloalg =         4  nspden =         1 nspinor =         1  nsppol =         1
    nsym =        16  n1xccc =         0  ntypat =         1  occopt =         1
================================================================================
P This job should need less than                       7.900 Mbytes of memory.
  Rough estimation (10% accuracy) of disk space for files :
  WF disk file :      0.025 Mbytes ; DEN or POT disk file :      0.208 Mbytes.
================================================================================

 -outvars: echo values of preprocessed input variables --------
     acell    1.0000000000E+01  1.0000000000E+01  1.0000000000E+01 Bohr
       amu    1.00794000E+00
    diemac    2.00000000E+00
      ecut    1.00000000E+01 Hartree
    istwfk      2
P    mkmem         1
     natom         2
     nband         2
     ngfft        30      30      30
      nkpt         1
     nstep        10
      nsym        16
    ntypat         1
       occ    2.000000  0.000000
   spgroup       123
    symrel    1  0  0   0  1  0   0  0  1      -1  0  0   0 -1  0   0  0 -1
             -1  0  0   0  1  0   0  0 -1       1  0  0   0 -1  0   0  0  1
             -1  0  0   0 -1  0   0  0  1       1  0  0   0  1  0   0  0 -1
              1  0  0   0 -1  0   0  0 -1      -1  0  0   0  1  0   0  0  1
              1  0  0   0  0  1   0  1  0      -1  0  0   0  0 -1   0 -1  0
             -1  0  0   0  0  1   0 -1  0       1  0  0   0  0 -1   0  1  0
             -1  0  0   0  0 -1   0  1  0       1  0  0   0  0  1   0 -1  0
              1  0  0   0  0 -1   0 -1  0      -1  0  0   0  0  1   0  1  0
    toldfe    1.00000000E-06 Hartree
     typat    1  1
    xangst   -4.0270385574E-01  0.0000000000E+00  0.0000000000E+00
              4.0270385574E-01  0.0000000000E+00  0.0000000000E+00
     xcart   -7.6100000000E-01  0.0000000000E+00  0.0000000000E+00
              7.6100000000E-01  0.0000000000E+00  0.0000000000E+00
      xred   -7.6100000000E-02  0.0000000000E+00  0.0000000000E+00
              7.6100000000E-02  0.0000000000E+00  0.0000000000E+00
     znucl      1.00000

================================================================================

 chkinp: Checking input parameters for consistency.

================================================================================
== DATASET  1 ==================================================================

 Real(R)+Recip(G) space primitive vectors, cartesian coordinates (Bohr,Bohr^-1):
 R(1)= 10.0000000  0.0000000  0.0000000  G(1)=  0.1000000  0.0000000  0.0000000
 R(2)=  0.0000000 10.0000000  0.0000000  G(2)=  0.0000000  0.1000000  0.0000000
 R(3)=  0.0000000  0.0000000 10.0000000  G(3)=  0.0000000  0.0000000  0.1000000
 Unit cell volume ucvol=  1.0000000E+03 bohr^3
 Angles (23,13,12)=  9.00000000E+01  9.00000000E+01  9.00000000E+01 degrees

 getcut: wavevector=  0.0000  0.0000  0.0000  ngfft=  30  30  30
         ecut(hartree)=     10.000   => boxcut(ratio)=   2.10744

--- Pseudopotential description ------------------------------------------------
- pspini: atom type   1  psp file is /home/gonze/ABINIT/ABINITv5.6.3/test_gcc43/5.6.3-private/tests/Psps_for_tests/01h.pspgth
- pspatm: opening atomic psp file    /home/gonze/ABINIT/ABINITv5.6.3/test_gcc43/5.6.3-private/tests/Psps_for_tests/01h.pspgth
 Goedecker-Teter-Hutter  Wed May  8 14:27:44 EDT 1996
   1.00000   1.00000    960508                znucl, zion, pspdat
    2    1    0    0      2001   0.00000      pspcod,pspxc,lmax,lloc,mmax,r2well
 rloc=   0.2000000
  cc1=  -4.0663326; cc2=   0.6778322; cc3=   0.0000000; cc4=   0.0000000
  rrs=   0.0000000; h1s=   0.0000000; h2s=   0.0000000
  rrp=   0.0000000; h1p=   0.0000000
-  Local part computed in reciprocal space.

 pspatm : COMMENT -
  the projectors are not normalized,
  so that the KB energies are not consistent with
  definition in PRB44, 8503 (1991).
  However, this does not influence the results obtained hereafter.
 pspatm: epsatm=   -0.00480358
         --- l  ekb(1:nproj) -->
 pspatm: atomic psp has been read  and splines computed

  -1.92143215E-02                                ecore*ucvol(ha*bohr**3)
--------------------------------------------------------------------------------

P newkpt: treating      2 bands with npw=     752 for ikpt=   1

 setup2: Arith. and geom. avg. npw (full set) are    1503.000    1503.000

================================================================================

     iter   Etot(hartree)      deltaE(h)  residm     vres2    diffor    maxfor
 ETOT  1  -1.1040741886595    -1.104E+00 7.168E-04 7.368E+00 9.647E-03 9.647E-03
 ETOT  2  -1.1058162302137    -1.742E-03 2.144E-08 2.773E-01 9.403E-03 2.437E-04
 ETOT  3  -1.1058326612037    -1.643E-05 2.746E-08 1.087E-02 5.644E-04 8.081E-04
 ETOT  4  -1.1058359727176    -3.312E-06 2.632E-07 2.518E-04 6.485E-04 1.596E-04
 ETOT  5  -1.1058360273953    -5.468E-08 3.364E-09 3.940E-06 6.653E-05 2.262E-04
 ETOT  6  -1.1058360274535    -5.822E-11 1.401E-13 2.264E-07 6.217E-07 2.268E-04

 At SCF step    6, etot is converged :
  for the second time, diff in etot=  5.822E-11 < toldfe=  1.000E-06

 Cartesian components of stress tensor (hartree/bohr^3)
  sigma(1 1)=  4.24802949E-05  sigma(3 2)=  0.00000000E+00
  sigma(2 2)=  3.45816818E-05  sigma(3 1)=  0.00000000E+00
  sigma(3 3)=  3.45816818E-05  sigma(2 1)=  0.00000000E+00

================================================================================

 ----iterations are completed or convergence reached----

 Mean square residual over all n,k,spin=   1.0099E-13; max=  1.4012E-13
   0.0000  0.0000  0.0000    1  1.40115E-13 kpt; spin; max resid(k); each band:
 6.19E-14 1.40E-13
 reduced coordinates (array xred) for    2 atoms
      -0.076100000000      0.000000000000      0.000000000000
       0.076100000000      0.000000000000      0.000000000000
 rms dE/dt=  1.3093E-03; max dE/dt=  2.2677E-03; dE/dt below (all hartree)
    1      -0.002267732254      0.000000000000      0.000000000000
    2       0.002267732254      0.000000000000      0.000000000000

 cartesian coordinates (angstrom) at end:
    1     -0.40270385573699     0.00000000000000     0.00000000000000
    2      0.40270385573699     0.00000000000000     0.00000000000000

 cartesian forces (hartree/bohr) at end:
    1      0.00022677322540    -0.00000000000000    -0.00000000000000
    2     -0.00022677322540    -0.00000000000000    -0.00000000000000
 frms,max,avg= 1.3092758E-04 2.2677323E-04   0.000E+00  0.000E+00  0.000E+00 h/b

 cartesian forces (eV/Angstrom) at end:
    1      0.01166114712683    -0.00000000000000    -0.00000000000000
    2     -0.01166114712683    -0.00000000000000    -0.00000000000000
 frms,max,avg= 6.7325664E-03 1.1661147E-02   0.000E+00  0.000E+00  0.000E+00 e/A
 length scales= 10.000000000000 10.000000000000 10.000000000000 bohr
              =  5.291772085900  5.291772085900  5.291772085900 angstroms
 prteigrs : about to open file t14o_EIG
 Fermi (or HOMO) energy (hartree) =  -0.35516   Average Vxc (hartree)=  -0.07656
 Eigenvalues (hartree) for nkpt=   1  k points:
 kpt#   1, nband=  2, wtk=  1.00000, kpt=  0.0000  0.0000  0.0000 (reduced coord)
  -0.35516  -0.01383
 Total charge density [el/Bohr^3]
,     Maximum=    2.3385E-01  at reduced coord.    0.0000    0.0000    0.0000
,Next maximum=    2.3147E-01  at reduced coord.    0.9667    0.0000    0.0000
,     Minimum=    1.1182E-09  at reduced coord.    0.0667    0.5000    0.5000
,Next minimum=    1.1182E-09  at reduced coord.    0.9333    0.5000    0.5000

--------------------------------------------------------------------------------
 Components of total free energy (in Hartree) :

    Kinetic energy  =  9.49789530043804E-01
    Hartree energy  =  6.78457634131892E-01
    XC energy       = -6.16465297243689E-01
    Ewald energy    =  9.45899579776973E-02
    PspCore energy  = -1.92143215271889E-05
    Loc. psp. energy= -2.21218863804168E+00
    NL   psp  energy=  0.00000000000000E+00
    >>>>>>>>> Etotal= -1.10583602745350E+00

 Other information on the energy :
    Total energy(eV)= -3.00913286292547E+01 ; Band energy (Ha)=  -7.1031514132E-01
--------------------------------------------------------------------------------

 Cartesian components of stress tensor (hartree/bohr^3)
  sigma(1 1)=  4.24802949E-05  sigma(3 2)=  0.00000000E+00
  sigma(2 2)=  3.45816818E-05  sigma(3 1)=  0.00000000E+00
  sigma(3 3)=  3.45816818E-05  sigma(2 1)=  0.00000000E+00

-Cartesian components of stress tensor (GPa)         [Pressure= -1.0949E+00 GPa]
- sigma(1 1)=  1.24981321E+00  sigma(3 2)=  0.00000000E+00
- sigma(2 2)=  1.01742803E+00  sigma(3 1)=  0.00000000E+00
- sigma(3 3)=  1.01742803E+00  sigma(2 1)=  0.00000000E+00

== END DATASET(S) ==============================================================
================================================================================
  
 -outvars: echo values of variables after computation  --------
     acell    1.0000000000E+01  1.0000000000E+01  1.0000000000E+01 Bohr
       amu    1.00794000E+00
    diemac    2.00000000E+00
      ecut    1.00000000E+01 Hartree
    etotal   -1.1058360275E+00
     fcart    2.2677322540E-04 -0.0000000000E+00 -0.0000000000E+00
             -2.2677322540E-04 -0.0000000000E+00 -0.0000000000E+00
    istwfk      2
P    mkmem         1
     natom         2
     nband         2
     ngfft        30      30      30
      nkpt         1
     nstep        10
      nsym        16
    ntypat         1
       occ    2.000000  0.000000
   spgroup       123
    strten    4.2480294887E-05  3.4581681826E-05  3.4581681826E-05
              0.0000000000E+00  0.0000000000E+00  0.0000000000E+00
    symrel    1  0  0   0  1  0   0  0  1      -1  0  0   0 -1  0   0  0 -1
             -1  0  0   0  1  0   0  0 -1       1  0  0   0 -1  0   0  0  1
             -1  0  0   0 -1  0   0  0  1       1  0  0   0  1  0   0  0 -1
              1  0  0   0 -1  0   0  0 -1      -1  0  0   0  1  0   0  0  1
              1  0  0   0  0  1   0  1  0      -1  0  0   0  0 -1   0 -1  0
             -1  0  0   0  0  1   0 -1  0       1  0  0   0  0 -1   0  1  0
             -1  0  0   0  0 -1   0  1  0       1  0  0   0  0  1   0 -1  0
              1  0  0   0  0 -1   0 -1  0      -1  0  0   0  0  1   0  1  0
    toldfe    1.00000000E-06 Hartree
     typat    1  1
    xangst   -4.0270385574E-01  0.0000000000E+00  0.0000000000E+00
              4.0270385574E-01  0.0000000000E+00  0.0000000000E+00
     xcart   -7.6100000000E-01  0.0000000000E+00  0.0000000000E+00
              7.6100000000E-01  0.0000000000E+00  0.0000000000E+00
      xred   -7.6100000000E-02  0.0000000000E+00  0.0000000000E+00
              7.6100000000E-02  0.0000000000E+00  0.0000000000E+00
     znucl      1.00000

================================================================================

- Total cpu        time (s,m,h):          0.8        0.01      0.000
- Total wall clock time (s,m,h):          0.8        0.01      0.000

- For major independent code sections, cpu and wall times (sec),
- as well as % of the total time and number of calls 

- routine                 cpu     %       wall     %      number of calls 
-                                                          (-1=no count)
- timing timab           0.355  46.5      0.356  46.5             11
- invars2                0.098  12.8      0.099  12.9              1
- fourwf(pot)            0.077  10.1      0.059   7.7             76
- symrhg(no FFT)         0.034   4.5      0.034   4.4              6
- fourdp                 0.030   3.9      0.031   4.1             31
- abinit(2)              0.029   3.8      0.028   3.7              1
- xc:pot/=fourdp         0.020   2.6      0.019   2.5              7
- forces                 0.016   2.1      0.017   2.2              6
- stress                 0.006   0.8      0.006   0.8              1
- setsym                 0.006   0.8      0.006   0.8              1
- status                 0.005   0.7      0.000   0.0            233
- ewald                  0.005   0.7      0.005   0.7              1
- vtorho  (1)            0.005   0.7      0.004   0.5              6
- fourwf(den)            0.004   0.5      0.003   0.4              6
- nonlop(apply)          0.000   0.0      0.004   0.5             76
- 55   others            0.010   1.3      0.013   1.7

- subtotal               0.700  91.6      0.684  89.4

================================================================================

 Calculation completed.
.Delivered    1 WARNINGs and   4 COMMENTs to log file.
+Overall time at end (sec) : cpu=          0.9  wall=          0.9
