
.Version 5.6.3  of ABINIT 
.(sequential version, prepared for a x86_64_linux_gcc4.3 computer) 

.Copyright (C) 1998-2008 ABINIT group . 
 ABINIT comes with ABSOLUTELY NO WARRANTY.
 It is free software, and you are welcome to redistribute it
 under certain conditions (GNU General Public License,
 see ~abinit/COPYING or http://www.gnu.org/copyleft/gpl.txt).

 ABINIT is a project of the Universite Catholique de Louvain,
 Corning Inc. and other collaborators, see ~abinit/doc/developers/contributors.txt .
 Please read ~abinit/doc/users/acknowledgments.html for suggested
 acknowledgments of the ABINIT effort.
 For more information, see http://www.abinit.org .

.Starting date : Thu  6 Nov 2008.
  
- input  file    -> /home/gonze/ABINIT/ABINITv5.6.3/test_gcc43/5.6.3-private/tests/tutorial/Input/t45.in
- output file    -> t45.out
- root for input  files -> t45i
- root for output files -> t45o


 Symmetries : space group P4/m m m (#123); Bravais tP (primitive tetrag.)
================================================================================
 Values of the parameters that define the memory need of the present run
   intxc =         0  ionmov =         3    iscf =         7 xclevel =         1
  lmnmax =         3   lnmax =         3   mband =         7  mffmem =         1
P  mgfft =        36   mkmem =         6 mpssoang=         3     mpw =       300
  mqgrid =      3001   natom =         3    nfft =      5184    nkpt =         6
  nloalg =         4  nspden =         1 nspinor =         1  nsppol =         1
    nsym =        16  n1xccc =         0  ntypat =         1  occopt =         4
================================================================================
P This job should need less than                       2.942 Mbytes of memory.
  Rough estimation (10% accuracy) of disk space for files :
  WF disk file :      0.194 Mbytes ; DEN or POT disk file :      0.042 Mbytes.
================================================================================

 -outvars: echo values of preprocessed input variables --------
     acell    7.5055909000E+00  7.5055909000E+00  7.5055909000E+00 Bohr
       amu    2.69815390E+01
      ecut    6.00000000E+00 Hartree
    ionmov         3
       kpt    0.00000000E+00  1.25000000E-01  0.00000000E+00
              0.00000000E+00  3.75000000E-01  0.00000000E+00
              1.25000000E-01  2.50000000E-01  0.00000000E+00
              1.25000000E-01  5.00000000E-01  0.00000000E+00
              2.50000000E-01  3.75000000E-01  0.00000000E+00
              3.75000000E-01  5.00000000E-01  0.00000000E+00
   kptrlen    1.50111818E+01
    kptopt         1
  kptrlatt    4 -4  0   4  4  0   0  0  1
P    mkmem         6
     natom         3
     nband         7
     ngfft        12      12      36
      nkpt         6
     nstep        10
      nsym        16
     ntime        10
    ntypat         1
       occ    2.000000  2.000000  2.000000  2.000000  1.000000  0.000000
              0.000000
              2.000000  2.000000  2.000000  2.000000  1.000000  0.000000
              0.000000
              2.000000  2.000000  2.000000  2.000000  1.000000  0.000000
              0.000000
              2.000000  2.000000  2.000000  2.000000  1.000000  0.000000
              0.000000
              2.000000  2.000000  2.000000  2.000000  1.000000  0.000000
              0.000000
              2.000000  2.000000  2.000000  2.000000  1.000000  0.000000
              0.000000
    occopt         4
     rprim    5.0000000000E-01 -5.0000000000E-01  0.0000000000E+00
              5.0000000000E-01  5.0000000000E-01  0.0000000000E+00
              0.0000000000E+00  0.0000000000E+00  2.0000000000E+00
    shiftk   -5.00000000E-01  5.00000000E-01  0.00000000E+00
   spgroup       123
    symrel    1  0  0   0  1  0   0  0  1      -1  0  0   0 -1  0   0  0 -1
             -1  0  0   0  1  0   0  0 -1       1  0  0   0 -1  0   0  0  1
             -1  0  0   0 -1  0   0  0  1       1  0  0   0  1  0   0  0 -1
              1  0  0   0 -1  0   0  0 -1      -1  0  0   0  1  0   0  0  1
              0  1  0   1  0  0   0  0  1       0 -1  0  -1  0  0   0  0 -1
              0 -1  0   1  0  0   0  0 -1       0  1  0  -1  0  0   0  0  1
              0 -1  0  -1  0  0   0  0  1       0  1  0   1  0  0   0  0 -1
              0  1  0  -1  0  0   0  0 -1       0 -1  0   1  0  0   0  0  1
     tnons    0.0000000  0.0000000  0.0000000     0.0000000  0.0000000  0.5000000
              0.0000000  0.0000000  0.5000000     0.0000000  0.0000000  0.0000000
              0.0000000  0.0000000  0.0000000     0.0000000  0.0000000  0.5000000
              0.0000000  0.0000000  0.5000000     0.0000000  0.0000000  0.0000000
              0.0000000  0.0000000  0.0000000     0.0000000  0.0000000  0.5000000
              0.0000000  0.0000000  0.5000000     0.0000000  0.0000000  0.0000000
              0.0000000  0.0000000  0.0000000     0.0000000  0.0000000  0.5000000
              0.0000000  0.0000000  0.5000000     0.0000000  0.0000000  0.0000000
    toldff    5.00000000E-05
    tolmxf    5.00000000E-04
     typat    1  1  1
       wtk      0.12500    0.12500    0.25000    0.12500    0.25000    0.12500
    xangst    0.0000000000E+00  0.0000000000E+00  0.0000000000E+00
              1.9858938206E+00  0.0000000000E+00  1.9858938206E+00
              0.0000000000E+00  0.0000000000E+00  3.9717876413E+00
     xcart    0.0000000000E+00  0.0000000000E+00  0.0000000000E+00
              3.7527954500E+00  0.0000000000E+00  3.7527954500E+00
              0.0000000000E+00  0.0000000000E+00  7.5055909000E+00
      xred    0.0000000000E+00  0.0000000000E+00  0.0000000000E+00
              5.0000000000E-01  5.0000000000E-01  2.5000000000E-01
              0.0000000000E+00  0.0000000000E+00  5.0000000000E-01
     znucl     13.00000

================================================================================

 chkinp: Checking input parameters for consistency.

================================================================================
== DATASET  1 ==================================================================

 Real(R)+Recip(G) space primitive vectors, cartesian coordinates (Bohr,Bohr^-1):
 R(1)=  3.7527955 -3.7527954  0.0000000  G(1)=  0.1332340 -0.1332340  0.0000000
 R(2)=  3.7527955  3.7527955  0.0000000  G(2)=  0.1332340  0.1332340  0.0000000
 R(3)=  0.0000000  0.0000000 15.0111818  G(3)=  0.0000000  0.0000000  0.0666170
 Unit cell volume ucvol=  4.2281917E+02 bohr^3
 Angles (23,13,12)=  9.00000000E+01  9.00000000E+01  9.00000000E+01 degrees

 getcut: wavevector=  0.0000  0.0000  0.0000  ngfft=  12  12  36
         ecut(hartree)=      6.000   => boxcut(ratio)=   2.05055

--- Pseudopotential description ------------------------------------------------
- pspini: atom type   1  psp file is /home/gonze/ABINIT/ABINITv5.6.3/test_gcc43/5.6.3-private/tests/Psps_for_tests/13al.981214.fhi
- pspatm: opening atomic psp file    /home/gonze/ABINIT/ABINITv5.6.3/test_gcc43/5.6.3-private/tests/Psps_for_tests/13al.981214.fhi
 Aluminum, fhi98PP : Hamann-type, LDA CA PerdewWang, l=2 local
  13.00000   3.00000    981214                znucl, zion, pspdat
    6    7    2    2       493   0.00000      pspcod,pspxc,lmax,lloc,mmax,r2well
  No XC core correction.
  1.024700          amesh (Hamman grid)
 pspatm: epsatm=    1.36305739
         --- l  ekb(1:nproj) -->
             0    1.768744
             1    0.900554
 pspatm: atomic psp has been read  and splines computed

   3.68025494E+01                                ecore*ucvol(ha*bohr**3)
--------------------------------------------------------------------------------

P newkpt: treating      7 bands with npw=     286 for ikpt=   1
P newkpt: treating      7 bands with npw=     290 for ikpt=   2
P newkpt: treating      7 bands with npw=     290 for ikpt=   3
P newkpt: treating      7 bands with npw=     300 for ikpt=   4
P newkpt: treating      7 bands with npw=     298 for ikpt=   5
P newkpt: treating      7 bands with npw=     300 for ikpt=   6

 setup2: Arith. and geom. avg. npw (full set) are     294.000     293.954

================================================================================

 BROYDEN STEP NUMBER   0  ------------------------------------------------------

     iter   Etot(hartree)      deltaE(h)  residm     vres2    diffor    maxfor
 ETOT  1  -6.2039492789620    -6.204E+00 6.937E-03 1.089E+02 6.877E-03 6.877E-03
 ETOT  2  -6.2611155152229    -5.717E-02 2.734E-05 6.077E-01 1.016E-02 3.286E-03
 ETOT  3  -6.2617688839956    -6.534E-04 1.787E-05 4.208E-01 5.352E-04 2.751E-03
 ETOT  4  -6.2619683749309    -1.995E-04 1.004E-05 9.557E-03 6.525E-05 2.817E-03
 ETOT  5  -6.2619730663013    -4.691E-06 4.129E-06 8.397E-05 4.771E-05 2.769E-03
 ETOT  6  -6.2619731679891    -1.017E-07 1.934E-05 6.638E-07 2.743E-06 2.772E-03

 At SCF step    6, forces are converged :
  for the second time, max diff in force=  2.743E-06 < toldff=  5.000E-05

 Cartesian components of stress tensor (hartree/bohr^3)
  sigma(1 1)=  3.54022395E-05  sigma(3 2)=  0.00000000E+00
  sigma(2 2)=  3.54022395E-05  sigma(3 1)=  0.00000000E+00
  sigma(3 3)=  2.65598454E-04  sigma(2 1)=  0.00000000E+00

 Cartesian coordinates (bohr)
  0.00000000000000E+00  0.00000000000000E+00  0.00000000000000E+00
  3.75279545000000E+00  0.00000000000000E+00  3.75279545000000E+00
  0.00000000000000E+00  0.00000000000000E+00  7.50559090000000E+00
 Cartesian forces (hart/bohr); max,rms= 2.77154E-03 1.30652E-03 (free atoms)
 -0.00000000000000E+00 -0.00000000000000E+00 -2.77154210054591E-03
 -0.00000000000000E+00 -0.00000000000000E+00 -0.00000000000000E+00
 -0.00000000000000E+00 -0.00000000000000E+00  2.77154210054591E-03

 At the end of Broyden step  0, total energy= -6.26197316798911E+00 Ha.


 BROYDEN STEP NUMBER   1  ------------------------------------------------------

     iter   Etot(hartree)      deltaE(h)  residm     vres2    diffor    maxfor
 ETOT  1  -6.2619882837015    -6.262E+00 2.464E-05 2.475E-04 8.929E-05 2.682E-03
 ETOT  2  -6.2619886321064    -3.484E-07 2.436E-05 1.952E-05 4.406E-06 2.687E-03
 ETOT  3  -6.2619887281298    -9.602E-08 6.029E-06 9.061E-08 3.466E-06 2.690E-03

 At SCF step    3, forces are converged :
  for the second time, max diff in force=  3.466E-06 < toldff=  5.000E-05

 Cartesian components of stress tensor (hartree/bohr^3)
  sigma(1 1)=  3.61394585E-05  sigma(3 2)=  0.00000000E+00
  sigma(2 2)=  3.61394585E-05  sigma(3 1)=  0.00000000E+00
  sigma(3 3)=  2.67080462E-04  sigma(2 1)=  0.00000000E+00

 Cartesian coordinates (bohr)
  0.00000000000000E+00  0.00000000000000E+00 -2.77154210054591E-03
  3.75279545000000E+00  0.00000000000000E+00  3.75279545000000E+00
  0.00000000000000E+00  0.00000000000000E+00  7.50836244210054E+00
 Cartesian forces (hart/bohr); max,rms= 2.69012E-03 1.26814E-03 (free atoms)
 -0.00000000000000E+00 -0.00000000000000E+00 -2.69012377515357E-03
 -0.00000000000000E+00 -0.00000000000000E+00 -0.00000000000000E+00
 -0.00000000000000E+00 -0.00000000000000E+00  2.69012377515357E-03

 At the end of Broyden step  1, total energy= -6.26198872812982E+00 Ha.


 BROYDEN STEP NUMBER   2  ------------------------------------------------------

     iter   Etot(hartree)      deltaE(h)  residm     vres2    diffor    maxfor
 ETOT  1  -6.2620102639145    -6.262E+00 4.398E-06 7.005E-04 1.340E-04 2.556E-03
 ETOT  2  -6.2620108049651    -5.411E-07 2.320E-06 4.573E-05 2.941E-06 2.559E-03
 ETOT  3  -6.2620108612180    -5.625E-08 7.895E-06 1.994E-07 4.911E-06 2.564E-03

 At SCF step    3, forces are converged :
  for the second time, max diff in force=  4.911E-06 < toldff=  5.000E-05

 Cartesian components of stress tensor (hartree/bohr^3)
  sigma(1 1)=  3.72635704E-05  sigma(3 2)=  0.00000000E+00
  sigma(2 2)=  3.72635704E-05  sigma(3 1)=  0.00000000E+00
  sigma(3 3)=  2.69342434E-04  sigma(2 1)=  0.00000000E+00

 Cartesian coordinates (bohr)
  0.00000000000000E+00  0.00000000000000E+00 -6.92885525136590E-03
  3.75279545000000E+00  0.00000000000000E+00  3.75279545000000E+00
  0.00000000000000E+00  0.00000000000000E+00  7.51251975525137E+00
 Cartesian forces (hart/bohr); max,rms= 2.56402E-03 1.20869E-03 (free atoms)
 -0.00000000000000E+00 -0.00000000000000E+00 -2.56402152086018E-03
 -0.00000000000000E+00 -0.00000000000000E+00  1.44560289664734E-19
 -0.00000000000000E+00 -0.00000000000000E+00  2.56402152086018E-03

 At the end of Broyden step  2, total energy= -6.26201086121804E+00 Ha.


 BROYDEN STEP NUMBER   3  ------------------------------------------------------

     iter   Etot(hartree)      deltaE(h)  residm     vres2    diffor    maxfor
 ETOT  1  -6.2620420327563    -6.262E+00 3.521E-06 1.708E-03 2.135E-04 2.351E-03
 ETOT  2  -6.2620431255034    -1.093E-06 1.593E-06 1.161E-04 3.258E-06 2.354E-03
 ETOT  3  -6.2620431941476    -6.864E-08 3.566E-07 4.555E-07 7.004E-06 2.361E-03

 At SCF step    3, forces are converged :
  for the second time, max diff in force=  7.004E-06 < toldff=  5.000E-05

 Cartesian components of stress tensor (hartree/bohr^3)
  sigma(1 1)=  3.90847323E-05  sigma(3 2)=  0.00000000E+00
  sigma(2 2)=  3.90847323E-05  sigma(3 1)=  0.00000000E+00
  sigma(3 3)=  2.72753713E-04  sigma(2 1)=  0.00000000E+00

 Cartesian coordinates (bohr)
  0.00000000000000E+00  0.00000000000000E+00 -1.34805004563619E-02
  3.75279545000000E+00  0.00000000000000E+00  3.75279545000000E+00
  0.00000000000000E+00  0.00000000000000E+00  7.51907140045636E+00
 Cartesian forces (hart/bohr); max,rms= 2.36082E-03 1.11290E-03 (free atoms)
 -0.00000000000000E+00 -0.00000000000000E+00 -2.36081985724021E-03
 -0.00000000000000E+00 -0.00000000000000E+00 -0.00000000000000E+00
 -0.00000000000000E+00 -0.00000000000000E+00  2.36081985724021E-03

 At the end of Broyden step  3, total energy= -6.26204319414763E+00 Ha.


 BROYDEN STEP NUMBER   4  ------------------------------------------------------

     iter   Etot(hartree)      deltaE(h)  residm     vres2    diffor    maxfor
 ETOT  1  -6.2621390667325    -6.262E+00 8.628E-07 4.529E-02 1.115E-03 1.246E-03
 ETOT  2  -6.2621672387034    -2.817E-05 2.079E-07 3.116E-03 2.334E-05 1.269E-03
 ETOT  3  -6.2621689345602    -1.696E-06 7.291E-08 1.197E-05 3.420E-05 1.304E-03

 At SCF step    3, forces are converged :
  for the second time, max diff in force=  3.420E-05 < toldff=  5.000E-05

 Cartesian components of stress tensor (hartree/bohr^3)
  sigma(1 1)=  4.83152294E-05  sigma(3 2)=  0.00000000E+00
  sigma(2 2)=  4.83152294E-05  sigma(3 1)=  0.00000000E+00
  sigma(3 3)=  2.90278497E-04  sigma(2 1)=  0.00000000E+00

 Cartesian coordinates (bohr)
  0.00000000000000E+00  0.00000000000000E+00 -4.78094543906705E-02
  3.75279545000000E+00  0.00000000000000E+00  3.75279545000000E+00
  0.00000000000000E+00  0.00000000000000E+00  7.55340035439066E+00
 Cartesian forces (hart/bohr); max,rms= 1.30351E-03 6.14481E-04 (free atoms)
 -0.00000000000000E+00 -0.00000000000000E+00 -1.30351166897941E-03
 -0.00000000000000E+00 -0.00000000000000E+00 -0.00000000000000E+00
 -0.00000000000000E+00 -0.00000000000000E+00  1.30351166897941E-03

 At the end of Broyden step  4, total energy= -6.26216893456021E+00 Ha.


 BROYDEN STEP NUMBER   5  ------------------------------------------------------

     iter   Etot(hartree)      deltaE(h)  residm     vres2    diffor    maxfor
 ETOT  1  -6.2621842215161    -6.262E+00 2.689E-07 6.145E-02 1.373E-03 6.984E-05
 ETOT  2  -6.2622226787600    -3.846E-05 4.879E-09 4.543E-03 4.444E-05 2.540E-05
 ETOT  3  -6.2622251350875    -2.456E-06 2.391E-08 1.991E-05 3.924E-05 1.384E-05

 At SCF step    3, forces are converged :
  for the second time, max diff in force=  3.924E-05 < toldff=  5.000E-05

 Cartesian components of stress tensor (hartree/bohr^3)
  sigma(1 1)=  5.89806380E-05  sigma(3 2)=  0.00000000E+00
  sigma(2 2)=  5.89806380E-05  sigma(3 1)=  0.00000000E+00
  sigma(3 3)=  3.11898673E-04  sigma(2 1)=  0.00000000E+00

 Cartesian coordinates (bohr)
  0.00000000000000E+00  0.00000000000000E+00 -9.05455304422157E-02
  3.75279545000000E+00  0.00000000000000E+00  3.75279545000000E+00
  0.00000000000000E+00  0.00000000000000E+00  7.59613643044222E+00
 Cartesian forces (hart/bohr); max,rms= 1.38358E-05 6.52228E-06 (free atoms)
 -0.00000000000000E+00 -0.00000000000000E+00 -1.38358404083046E-05
 -0.00000000000000E+00 -0.00000000000000E+00 -0.00000000000000E+00
 -0.00000000000000E+00 -0.00000000000000E+00  1.38358404083046E-05

 At the end of Broyden step  5, total energy= -6.26222513508749E+00 Ha.


 At Broyd/MD step   5, gradients are converged :
  max grad (force/stress) = 1.3836E-05 < tolmxf= 5.0000E-04 ha/bohr (free atoms)

================================================================================

 ----iterations are completed or convergence reached----

 Mean square residual over all n,k,spin=   9.9008E-09; max=  2.3912E-08
   0.0000  0.1250  0.0000    1  2.39115E-08 kpt; spin; max resid(k); each band:
 1.65E-08 1.21E-08 2.39E-08 1.21E-08 1.23E-08 6.79E-10 1.06E-10
   0.0000  0.3750  0.0000    1  1.51034E-08 kpt; spin; max resid(k); each band:
 1.43E-08 1.20E-08 1.45E-08 1.49E-08 8.19E-10 1.51E-08 1.20E-08
   0.1250  0.2500  0.0000    1  2.35948E-08 kpt; spin; max resid(k); each band:
 1.63E-08 1.21E-08 2.36E-08 1.37E-09 1.21E-08 8.39E-11 1.32E-08
   0.1250  0.5000  0.0000    1  1.44028E-08 kpt; spin; max resid(k); each band:
 1.41E-08 1.44E-08 1.21E-08 1.58E-11 1.41E-08 1.44E-08 1.22E-08
   0.2500  0.3750  0.0000    1  1.51975E-08 kpt; spin; max resid(k); each band:
 1.42E-08 1.47E-10 1.45E-08 1.52E-08 1.66E-10 2.41E-09 1.50E-08
   0.3750  0.5000  0.0000    1  1.47463E-08 kpt; spin; max resid(k); each band:
 1.40E-08 3.31E-10 2.55E-11 3.64E-10 1.47E-08 3.13E-09 3.06E-10
 reduced coordinates (array xred) for    3 atoms
       0.000000000000      0.000000000000     -0.006031872217
       0.500000000000      0.500000000000      0.250000000000
       0.000000000000      0.000000000000      0.506031872217
 rms dE/dt=  9.7907E-05; max dE/dt=  2.0769E-04; dE/dt below (all hartree)
    1       0.000000000000      0.000000000000      0.000207692316
    2       0.000000000000      0.000000000000      0.000000000000
    3       0.000000000000      0.000000000000     -0.000207692316

 cartesian coordinates (angstrom) at end:
    1      0.00000000000000     0.00000000000000    -0.04791463104971
    2      1.98589382064025     0.00000000000000     1.98589382064025
    3      0.00000000000000     0.00000000000000     4.01970227233022

 cartesian forces (hartree/bohr) at end:
    1     -0.00000000000000    -0.00000000000000    -0.00001383584041
    2     -0.00000000000000    -0.00000000000000    -0.00000000000000
    3     -0.00000000000000    -0.00000000000000     0.00001383584041
 frms,max,avg= 6.5222777E-06 1.3835840E-05   0.000E+00  0.000E+00  0.000E+00 h/b

 cartesian forces (eV/Angstrom) at end:
    1     -0.00000000000000    -0.00000000000000    -0.00071146745979
    2     -0.00000000000000    -0.00000000000000    -0.00000000000000
    3     -0.00000000000000    -0.00000000000000     0.00071146745979
 frms,max,avg= 3.3538898E-04 7.1146746E-04   0.000E+00  0.000E+00  0.000E+00 e/A
 length scales=  7.505590900000  7.505590900000  7.505590900000 bohr
              =  3.971787641281  3.971787641281  3.971787641281 angstroms
 prteigrs : about to open file t45o_EIG
 Fermi (or HOMO) energy (hartree) =   0.18902   Average Vxc (hartree)=  -0.31195
 Eigenvalues (hartree) for nkpt=   6  k points:
 kpt#   1, nband=  7, wtk=  0.12500, kpt=  0.0000  0.1250  0.0000 (reduced coord)
  -0.19289  -0.10475  -0.00967   0.16540   0.23939   0.29535   0.37438
      occupation numbers for kpt#   1
   2.00000   2.00000   2.00000   1.79765   0.00011   0.00067   0.00000
 kpt#   2, nband=  7, wtk=  0.12500, kpt=  0.0000  0.3750  0.0000 (reduced coord)
  -0.10805  -0.02104   0.05753   0.07287   0.14198   0.23856   0.24393
      occupation numbers for kpt#   2
   2.00000   2.00000   2.00010   2.00087   2.14053   0.00003   0.00141
 kpt#   3, nband=  7, wtk=  0.25000, kpt=  0.1250  0.2500  0.0000 (reduced coord)
  -0.15028  -0.06272   0.03202   0.17594   0.20421   0.25964   0.27925
      occupation numbers for kpt#   3
   2.00000   2.00000   2.00000   1.40987   0.30798   0.00526   0.00257
 kpt#   4, nband=  7, wtk=  0.12500, kpt=  0.1250  0.5000  0.0000 (reduced coord)
  -0.02742  -0.02178   0.06106   0.06134   0.13864   0.17519   0.30637
      occupation numbers for kpt#   4
   2.00000   2.00000   2.00017   2.00018   2.14124   1.44085   0.00020
 kpt#   5, nband=  7, wtk=  0.25000, kpt=  0.2500  0.3750  0.0000 (reduced coord)
  -0.06622   0.02024   0.09620   0.11377   0.17964   0.26609   0.27588
      occupation numbers for kpt#   5
   2.00000   2.00000   2.01209   2.05108   1.25109   0.00482   0.00316
 kpt#   6, nband=  7, wtk=  0.12500, kpt=  0.3750  0.5000  0.0000 (reduced coord)
   0.05326   0.05825   0.13872   0.14096   0.21870   0.22263   0.23290
      occupation numbers for kpt#   6
   2.00005   2.00011   2.14130   2.14155   0.06195   0.03304   0.00215
 Total charge density [el/Bohr^3]
,     Maximum=    3.4935E-02  at reduced coord.    0.0000    0.6667    0.4722
,Next maximum=    3.4935E-02  at reduced coord.    0.0000    0.3333    0.4722
,     Minimum=    2.5768E-03  at reduced coord.    0.5000    0.5000    0.2500
,Next minimum=    2.6885E-03  at reduced coord.    0.5000    0.5000    0.7500

--------------------------------------------------------------------------------
 Components of total free energy (in Hartree) :

    Kinetic energy  =  2.41512527989617E+00
    Hartree energy  =  9.14799608345173E-01
    XC energy       = -2.32241204201012E+00
    Ewald energy    = -6.45487324784985E+00
    PspCore energy  =  8.70408728453810E-02
    Loc. psp. energy= -2.26405716992826E+00
    NL   psp  energy=  1.36365417235739E+00
    >>>>> Internal E= -6.26072252634412E+00

    -kT*entropy     = -1.50260874337490E-03
    >>>>>>>>> Etotal= -6.26222513508749E+00

 Other information on the energy :
    Total energy(eV)= -1.70403811968606E+02 ; Band energy (Ha)=   3.1935611818E-01
--------------------------------------------------------------------------------
 rms coord change=  2.8435E-03   atom, delta coord (reduced):
     1        0.000000000000      0.000000000000     -0.006031872217
     2        0.000000000000      0.000000000000      0.000000000000
     3        0.000000000000      0.000000000000      0.006031872217

 Cartesian components of stress tensor (hartree/bohr^3)
  sigma(1 1)=  5.89806380E-05  sigma(3 2)=  0.00000000E+00
  sigma(2 2)=  5.89806380E-05  sigma(3 1)=  0.00000000E+00
  sigma(3 3)=  3.11898673E-04  sigma(2 1)=  0.00000000E+00

-Cartesian components of stress tensor (GPa)         [Pressure= -4.2156E+00 GPa]
- sigma(1 1)=  1.73526999E+00  sigma(3 2)=  0.00000000E+00
- sigma(2 2)=  1.73526999E+00  sigma(3 1)=  0.00000000E+00
- sigma(3 3)=  9.17637424E+00  sigma(2 1)=  0.00000000E+00

== END DATASET(S) ==============================================================
================================================================================
  
 -outvars: echo values of variables after computation  --------
     acell    7.5055909000E+00  7.5055909000E+00  7.5055909000E+00 Bohr
       amu    2.69815390E+01
      ecut    6.00000000E+00 Hartree
    etotal   -6.2622251351E+00
     fcart   -0.0000000000E+00 -0.0000000000E+00 -1.3835840408E-05
             -0.0000000000E+00 -0.0000000000E+00 -0.0000000000E+00
             -0.0000000000E+00 -0.0000000000E+00  1.3835840408E-05
    ionmov         3
       kpt    0.00000000E+00  1.25000000E-01  0.00000000E+00
              0.00000000E+00  3.75000000E-01  0.00000000E+00
              1.25000000E-01  2.50000000E-01  0.00000000E+00
              1.25000000E-01  5.00000000E-01  0.00000000E+00
              2.50000000E-01  3.75000000E-01  0.00000000E+00
              3.75000000E-01  5.00000000E-01  0.00000000E+00
   kptrlen    1.50111818E+01
    kptopt         1
  kptrlatt    4 -4  0   4  4  0   0  0  1
P    mkmem         6
     natom         3
     nband         7
     ngfft        12      12      36
      nkpt         6
     nstep        10
      nsym        16
     ntime        10
    ntypat         1
       occ    2.000000  2.000000  2.000000  1.797650  0.000114  0.000671
              0.000000
              2.000000  2.000000  2.000101  2.000866  2.140534  0.000027
              0.001411
              2.000000  2.000000  2.000001  1.409871  0.307984  0.005258
              0.002569
              2.000000  2.000000  2.000170  2.000177  2.141237  1.440850
              0.000202
              2.000000  2.000000  2.012087  2.051078  1.251086  0.004823
              0.003162
              2.000052  2.000112  2.141297  2.141552  0.061951  0.033039
              0.002146
    occopt         4
     rprim    5.0000000000E-01 -5.0000000000E-01  0.0000000000E+00
              5.0000000000E-01  5.0000000000E-01  0.0000000000E+00
              0.0000000000E+00  0.0000000000E+00  2.0000000000E+00
    shiftk   -5.00000000E-01  5.00000000E-01  0.00000000E+00
   spgroup       123
    strten    5.8980638007E-05  5.8980638007E-05  3.1189867331E-04
              0.0000000000E+00  0.0000000000E+00  0.0000000000E+00
    symrel    1  0  0   0  1  0   0  0  1      -1  0  0   0 -1  0   0  0 -1
             -1  0  0   0  1  0   0  0 -1       1  0  0   0 -1  0   0  0  1
             -1  0  0   0 -1  0   0  0  1       1  0  0   0  1  0   0  0 -1
              1  0  0   0 -1  0   0  0 -1      -1  0  0   0  1  0   0  0  1
              0  1  0   1  0  0   0  0  1       0 -1  0  -1  0  0   0  0 -1
              0 -1  0   1  0  0   0  0 -1       0  1  0  -1  0  0   0  0  1
              0 -1  0  -1  0  0   0  0  1       0  1  0   1  0  0   0  0 -1
              0  1  0  -1  0  0   0  0 -1       0 -1  0   1  0  0   0  0  1
     tnons    0.0000000  0.0000000  0.0000000     0.0000000  0.0000000  0.5000000
              0.0000000  0.0000000  0.5000000     0.0000000  0.0000000  0.0000000
              0.0000000  0.0000000  0.0000000     0.0000000  0.0000000  0.5000000
              0.0000000  0.0000000  0.5000000     0.0000000  0.0000000  0.0000000
              0.0000000  0.0000000  0.0000000     0.0000000  0.0000000  0.5000000
              0.0000000  0.0000000  0.5000000     0.0000000  0.0000000  0.0000000
              0.0000000  0.0000000  0.0000000     0.0000000  0.0000000  0.5000000
              0.0000000  0.0000000  0.5000000     0.0000000  0.0000000  0.0000000
    toldff    5.00000000E-05
    tolmxf    5.00000000E-04
     typat    1  1  1
       wtk      0.12500    0.12500    0.25000    0.12500    0.25000    0.12500
    xangst    0.0000000000E+00  0.0000000000E+00 -4.7914631050E-02
              1.9858938206E+00  0.0000000000E+00  1.9858938206E+00
              0.0000000000E+00  0.0000000000E+00  4.0197022723E+00
     xcart    0.0000000000E+00  0.0000000000E+00 -9.0545530442E-02
              3.7527954500E+00  0.0000000000E+00  3.7527954500E+00
              0.0000000000E+00  0.0000000000E+00  7.5961364304E+00
      xred    0.0000000000E+00  0.0000000000E+00 -6.0318722169E-03
              5.0000000000E-01  5.0000000000E-01  2.5000000000E-01
              0.0000000000E+00  0.0000000000E+00  5.0603187222E-01
     znucl     13.00000

================================================================================

- Total cpu        time (s,m,h):          4.2        0.07      0.001
- Total wall clock time (s,m,h):          4.2        0.07      0.001

- For major independent code sections, cpu and wall times (sec),
- as well as % of the total time and number of calls 

- routine                 cpu     %       wall     %      number of calls 
-                                                          (-1=no count)
- fourwf(pot)            1.735  41.2      1.732  41.1           6550
- timing timab           0.344   8.2      0.345   8.2             11
- vtowfk(ssdiag)         0.339   8.0      0.348   8.3             -1
- status                 0.275   6.5      0.269   6.4           2860
- pspini                 0.250   5.9      0.250   5.9              1
- projbd                 0.203   4.8      0.199   4.7          10328
- nonlop(apply)          0.198   4.7      0.210   5.0           6550
- fourwf(den)            0.127   3.0      0.131   3.1            861
- getghc-other           0.107   2.5      0.091   2.2             -1
- invars2                0.105   2.5      0.104   2.5              1
- vtorho(4)-mkrho-       0.099   2.3      0.098   2.3             42
- ewald                  0.066   1.6      0.065   1.5              6
- stress                 0.059   1.4      0.055   1.3              6
- forces                 0.055   1.3      0.049   1.2             21
- ewald2                 0.054   1.3      0.052   1.2              6
- nonlop(forces)         0.047   1.1      0.042   1.0            882
- abinit(2)              0.029   0.7      0.030   0.7              1
- vtorho-kpt loop        0.024   0.6      0.021   0.5             21
- symrhg(no FFT)         0.024   0.6      0.023   0.5             21
- 51   others            0.082   1.9      0.082   1.9

- subtotal               4.222 100.2      4.196  99.6

================================================================================

 Calculation completed.
.Delivered    2 WARNINGs and   1 COMMENTs to log file.
+Overall time at end (sec) : cpu=          4.2  wall=          4.2
