
.Version 5.6.3  of ABINIT 
.(sequential version, prepared for a x86_64_linux_gcc4.3 computer) 

.Copyright (C) 1998-2008 ABINIT group . 
 ABINIT comes with ABSOLUTELY NO WARRANTY.
 It is free software, and you are welcome to redistribute it
 under certain conditions (GNU General Public License,
 see ~abinit/COPYING or http://www.gnu.org/copyleft/gpl.txt).

 ABINIT is a project of the Universite Catholique de Louvain,
 Corning Inc. and other collaborators, see ~abinit/doc/developers/contributors.txt .
 Please read ~abinit/doc/users/acknowledgments.html for suggested
 acknowledgments of the ABINIT effort.
 For more information, see http://www.abinit.org .

.Starting date : Thu  6 Nov 2008.
  
- input  file    -> /home/gonze/ABINIT/ABINITv5.6.3/test_gcc43/5.6.3-private/tests/tutorial/Input/tgw2_3.in
- output file    -> tgw2_3.out
- root for input  files -> tgw2_3i
- root for output files -> tgw2_3o


 Symmetries : space group Fm -3 m (#225); Bravais cF (face-center cubic)
================================================================================
 Values of the parameters that define the memory need of the present run
   intxc =         0  ionmov =         0    iscf =         7 xclevel =         1
  lmnmax =         3   lnmax =         3   mband =        30  mffmem =         1
P  mgfft =        15   mkmem =         8 mpssoang=         3     mpw =       126
  mqgrid =      3001   natom =         1    nfft =      3375    nkpt =         8
  nloalg =         4  nspden =         1 nspinor =         1  nsppol =         1
    nsym =        48  n1xccc =         0  ntypat =         1  occopt =         3
================================================================================
P This job should need less than                       2.671 Mbytes of memory.
  Rough estimation (10% accuracy) of disk space for files :
  WF disk file :      0.463 Mbytes ; DEN or POT disk file :      0.028 Mbytes.
================================================================================

 -outvars: echo values of preprocessed input variables --------
     acell    7.6520000000E+00  7.6520000000E+00  7.6520000000E+00 Bohr
       amu    2.69815390E+01
      bdgw         1       1       2       2       1       2       1       1
                   1       3       1       3       1       5       1       4
      ecut    8.00000000E+00 Hartree
  ecutsigx    6.50000000E+00 Hartree
   ecutwfn    6.50000000E+00 Hartree
    enunit         1
 gwcalctyp        12
    istwfk      1    0    1    0    0    0    1    0
       ixc         7
       kpt    0.00000000E+00  0.00000000E+00  0.00000000E+00
              2.50000000E-01  0.00000000E+00  0.00000000E+00
              5.00000000E-01  0.00000000E+00  0.00000000E+00
              2.50000000E-01  2.50000000E-01  0.00000000E+00
              5.00000000E-01  2.50000000E-01  0.00000000E+00
             -2.50000000E-01  2.50000000E-01  0.00000000E+00
              5.00000000E-01  5.00000000E-01  0.00000000E+00
             -2.50000000E-01  5.00000000E-01  2.50000000E-01
     kptgw    0.00000000E+00  0.00000000E+00  0.00000000E+00
              2.50000000E-01  0.00000000E+00  0.00000000E+00
              5.00000000E-01  0.00000000E+00  0.00000000E+00
              2.50000000E-01  2.50000000E-01  0.00000000E+00
              5.00000000E-01  2.50000000E-01  0.00000000E+00
             -2.50000000E-01  2.50000000E-01  0.00000000E+00
              5.00000000E-01  5.00000000E-01  0.00000000E+00
             -2.50000000E-01  5.00000000E-01  2.50000000E-01
   kptrlen    2.16431244E+01
    kptopt         1
  kptrlatt    4  0  0   0  4  0   0  0  4
P    mkmem         8
     natom         1
     nband        30
     ngfft        15      15      15
    nkptgw         8
      nkpt         8
     nstep        50
      nsym        48
    ntypat         1
       occ    2.000000  1.000000  0.000000  0.000000  0.000000  0.000000
              0.000000  0.000000  0.000000  0.000000  0.000000  0.000000
              0.000000  0.000000  0.000000  0.000000  0.000000  0.000000
              0.000000  0.000000  0.000000  0.000000  0.000000  0.000000
              0.000000  0.000000  0.000000  0.000000  0.000000  0.000000
              2.000000  1.000000  0.000000  0.000000  0.000000  0.000000
              0.000000  0.000000  0.000000  0.000000  0.000000  0.000000
              0.000000  0.000000  0.000000  0.000000  0.000000  0.000000
              0.000000  0.000000  0.000000  0.000000  0.000000  0.000000
              0.000000  0.000000  0.000000  0.000000  0.000000  0.000000
              2.000000  1.000000  0.000000  0.000000  0.000000  0.000000
              0.000000  0.000000  0.000000  0.000000  0.000000  0.000000
              0.000000  0.000000  0.000000  0.000000  0.000000  0.000000
              0.000000  0.000000  0.000000  0.000000  0.000000  0.000000
              0.000000  0.000000  0.000000  0.000000  0.000000  0.000000
              2.000000  1.000000  0.000000  0.000000  0.000000  0.000000
              0.000000  0.000000  0.000000  0.000000  0.000000  0.000000
              0.000000  0.000000  0.000000  0.000000  0.000000  0.000000
              0.000000  0.000000  0.000000  0.000000  0.000000  0.000000
              0.000000  0.000000  0.000000  0.000000  0.000000  0.000000
              2.000000  1.000000  0.000000  0.000000  0.000000  0.000000
              0.000000  0.000000  0.000000  0.000000  0.000000  0.000000
              0.000000  0.000000  0.000000  0.000000  0.000000  0.000000
              0.000000  0.000000  0.000000  0.000000  0.000000  0.000000
              0.000000  0.000000  0.000000  0.000000  0.000000  0.000000
              2.000000  1.000000  0.000000  0.000000  0.000000  0.000000
              0.000000  0.000000  0.000000  0.000000  0.000000  0.000000
              0.000000  0.000000  0.000000  0.000000  0.000000  0.000000
              0.000000  0.000000  0.000000  0.000000  0.000000  0.000000
              0.000000  0.000000  0.000000  0.000000  0.000000  0.000000
              2.000000  1.000000  0.000000  0.000000  0.000000  0.000000
              0.000000  0.000000  0.000000  0.000000  0.000000  0.000000
              0.000000  0.000000  0.000000  0.000000  0.000000  0.000000
              0.000000  0.000000  0.000000  0.000000  0.000000  0.000000
              0.000000  0.000000  0.000000  0.000000  0.000000  0.000000
              2.000000  1.000000  0.000000  0.000000  0.000000  0.000000
              0.000000  0.000000  0.000000  0.000000  0.000000  0.000000
              0.000000  0.000000  0.000000  0.000000  0.000000  0.000000
              0.000000  0.000000  0.000000  0.000000  0.000000  0.000000
              0.000000  0.000000  0.000000  0.000000  0.000000  0.000000
    occopt         3
 optdriver         4
    prtvol         5
     rprim    0.0000000000E+00  5.0000000000E-01  5.0000000000E-01
              5.0000000000E-01  0.0000000000E+00  5.0000000000E-01
              5.0000000000E-01  5.0000000000E-01  0.0000000000E+00
   spgroup       225
    symrel    1  0  0   0  1  0   0  0  1      -1  0  0   0 -1  0   0  0 -1
              0 -1  1   0 -1  0   1 -1  0       0  1 -1   0  1  0  -1  1  0
             -1  0  0  -1  0  1  -1  1  0       1  0  0   1  0 -1   1 -1  0
              0  1 -1   1  0 -1   0  0 -1       0 -1  1  -1  0  1   0  0  1
             -1  0  0  -1  1  0  -1  0  1       1  0  0   1 -1  0   1  0 -1
              0 -1  1   1 -1  0   0 -1  0       0  1 -1  -1  1  0   0  1  0
              1  0  0   0  0  1   0  1  0      -1  0  0   0  0 -1   0 -1  0
              0  1 -1   0  0 -1   1  0 -1       0 -1  1   0  0  1  -1  0  1
             -1  0  1  -1  1  0  -1  0  0       1  0 -1   1 -1  0   1  0  0
              0 -1  0   1 -1  0   0 -1  1       0  1  0  -1  1  0   0  1 -1
              1  0 -1   0  0 -1   0  1 -1      -1  0  1   0  0  1   0 -1  1
              0  1  0   0  0  1   1  0  0       0 -1  0   0  0 -1  -1  0  0
              1  0 -1   0  1 -1   0  0 -1      -1  0  1   0 -1  1   0  0  1
              0 -1  0   0 -1  1   1 -1  0       0  1  0   0  1 -1  -1  1  0
             -1  0  1  -1  0  0  -1  1  0       1  0 -1   1  0  0   1 -1  0
              0  1  0   1  0  0   0  0  1       0 -1  0  -1  0  0   0  0 -1
              0  0 -1   0  1 -1   1  0 -1       0  0  1   0 -1  1  -1  0  1
              1 -1  0   0 -1  1   0 -1  0      -1  1  0   0  1 -1   0  1  0
              0  0  1   1  0  0   0  1  0       0  0 -1  -1  0  0   0 -1  0
             -1  1  0  -1  0  0  -1  0  1       1 -1  0   1  0  0   1  0 -1
              0  0  1   0  1  0   1  0  0       0  0 -1   0 -1  0  -1  0  0
              1 -1  0   0 -1  0   0 -1  1      -1  1  0   0  1  0   0  1 -1
              0  0 -1   1  0 -1   0  1 -1       0  0  1  -1  0  1   0 -1  1
             -1  1  0  -1  0  1  -1  0  0       1 -1  0   1  0 -1   1  0  0
    toldfe    1.00000000E-08 Hartree
    tsmear    5.00000000E-02 Hartree
     typat    1
       wtk      0.01563    0.12500    0.06250    0.09375    0.37500    0.18750
                0.04688    0.09375
     znucl     13.00000

================================================================================

 chkinp: Checking input parameters for consistency.

================================================================================
== DATASET  1 ==================================================================

 SIGMA: Calculation of the GW corrections

 Based on a program developped by R.W. Godby, V. Olevano, G. Onida, and L. Reining.
 Incorporated in ABINIT by V. Olevano, G.-M. Rignanese, and M. Torrent.

 Real(R)+Recip(G) space primitive vectors, cartesian coordinates (Bohr,Bohr^-1):
 R(1)=  0.0000000  3.8260000  3.8260000  G(1)= -0.1306848  0.1306848  0.1306848
 R(2)=  3.8260000  0.0000000  3.8260000  G(2)=  0.1306848 -0.1306848  0.1306848
 R(3)=  3.8260000  3.8260000  0.0000000  G(3)=  0.1306848  0.1306848 -0.1306848
 Unit cell volume ucvol=  1.1201209E+02 bohr^3
 Angles (23,13,12)=  6.00000000E+01  6.00000000E+01  6.00000000E+01 degrees
 setmesh: FFT mesh size selected  =  15x 15x 15
          total number of points  =     3375


--- Pseudopotential description ------------------------------------------------
- pspini: atom type   1  psp file is /home/gonze/ABINIT/ABINITv5.6.3/test_gcc43/5.6.3-private/tests/Psps_for_tests/13al.981214.fhi
- pspatm: opening atomic psp file    /home/gonze/ABINIT/ABINITv5.6.3/test_gcc43/5.6.3-private/tests/Psps_for_tests/13al.981214.fhi
 Aluminum, fhi98PP : Hamann-type, LDA CA PerdewWang, l=2 local
  13.00000   3.00000    981214                znucl, zion, pspdat
    6    7    2    2       493   0.00000      pspcod,pspxc,lmax,lloc,mmax,r2well
  No XC core correction.
  1.024700          amesh (Hamman grid)
 pspatm: epsatm=    1.36305739
         --- l  ekb(1:nproj) -->
             0    1.768744
             1    0.900554
 pspatm: atomic psp has been read  and splines computed

   4.08917216E+00                                ecore*ucvol(ha*bohr**3)
--------------------------------------------------------------------------------


 k       eigenvalues [eV]
  1         -3.76  19.92  19.92  19.92  21.00  21.00  21.00  23.88  26.71  26.71
            29.15  31.73  31.73  31.73  38.00  60.59  60.59  60.59  63.51  63.51
            63.77  63.77  63.77  67.11  67.28  67.28  67.28  85.89  85.89  88.52

  2         -2.08  10.72  18.06  18.06  21.49  21.89  21.89  25.91  26.04  26.04
            31.63  37.67  39.40  39.40  44.61  47.79  47.79  51.58  63.24  63.24
            64.85  65.15  67.48  67.48  70.14  70.55  70.55  77.41  79.47  79.47

  3          2.78   2.92  18.41  18.41  18.77  18.77  22.18  22.53  32.20  32.20
            37.69  37.69  38.17  43.26  50.07  51.81  51.81  53.80  54.39  54.39
            58.45  59.03  65.67  65.67  67.47  68.68  71.46  71.46  73.76  73.76

  4         -1.52  14.71  14.71  14.83  15.49  18.03  28.77  28.93  28.93  33.47
            33.82  34.93  34.93  37.89  48.21  48.33  48.33  50.33  53.54  62.09
            63.95  66.65  66.65  68.09  68.17  68.17  69.76  80.67  80.72  80.72

  5          2.30   6.56  10.92  14.24  15.94  23.16  25.83  28.59  31.85  32.72
            38.44  39.65  41.91  44.66  45.38  48.18  50.49  51.18  53.26  55.40
            58.00  58.87  61.97  63.24  65.78  66.38  68.49  69.54  70.87  76.43

  6          0.68   8.56  10.00  16.64  18.62  24.28  24.64  25.80  28.18  32.64
            34.98  37.39  43.03  43.59  48.28  48.73  52.32  52.75  53.42  55.60
            58.41  60.23  61.72  63.08  65.18  69.51  70.14  70.23  77.94  78.27

  7          4.42   5.70  12.62  12.80  12.80  16.13  32.83  34.41  34.41  39.71
            39.79  39.79  40.39  42.30  47.98  47.98  48.33  48.33  48.84  49.36
            49.48  49.78  65.66  69.57  72.12  72.12  73.85  74.87  75.16  75.39

  8          6.49   6.49   7.54   8.26  23.04  23.04  23.32  25.45  34.65  39.48
            41.10  41.10  42.22  42.53  42.53  44.38  52.85  52.85  56.17  57.67
            59.27  59.57  59.83  60.28  60.38  60.38  62.85  62.85  75.52  76.87


 test on the normalization of the wavefunctions
 min sum_G |a(n,k,G)| =  0.985164
 max sum_G |a(n,k,G)| =  1.000000
 test on the orthogonalization of the wavefunctions
 min sum_G a(n,k,G)* a(n",k,G) =  0.000000
 max sum_G a(n,k,G)* a(n",k,G) =  0.008765

 total number of electrons per unit cell =    2.9998
 average of density, n =  0.026781
 r_s =    2.0735
 omega_plasma =   15.7859 [eV]


 rdqps: reading QP wavefunctions of the previous step
        looking for file tgw2_3i_QPS
 file not found, 1st iteration initialized with KS eigenelements

 total number of electrons per unit cell =    2.9998
 average of density, n =  0.026781
 r_s =    2.0735
 omega_plasma =   15.7859 [eV]

 SIGMA fundamental parameters:
 CONTOUR DEFORMATION
 number of plane-waves for SigmaX                   89
 number of plane-waves for SigmaC and W             51
 number of plane-waves for wavefunctions            89
 number of bands                                    30
 number of independent spin polarizations            1
 number of k-points in IBZ                           8
 number of q-points in IBZ                           8
 number of symmetry operations                      48
 number of k-points in BZ                           64
 number of q-points in BZ                           64
 number of omega for Sigma on real axis              9
 deltae [eV]                                      0.25
 number of omega for Sigma on real axis              0
 max omega for Sigma on real axis  [eV]           0.00

 EPSILON^-1 parameters (SCR file):
 dimension of the eps^-1 matrix                     51
 number of plane-waves for wavefunctions            51
 number of bands                                    30
 number of q-points in IBZ                           8
 number of frequencies                              14
 number of real frequencies                         10
 number of imag frequencies                          4

 matrix elements of self-energy operator (all in [eV])

 Self-Consistent on Energies only

 k =    0.000   0.000   0.000
 Band     E_lda   <Vxclda>   E(N-1)  <Hhartree>   SigX  SigC[E(N-1)]    Z     dSigC/dE  Sig[E(N)]  DeltaE  E(N)_pert E(N)_diago
    1    -3.762    -9.451    -3.762     5.689   -15.049     5.676     0.777    -0.288    -9.390     0.060    -3.702    -3.684

 k =    0.250   0.000   0.000
 Band     E_lda   <Vxclda>   E(N-1)  <Hhartree>   SigX  SigC[E(N-1)]    Z     dSigC/dE  Sig[E(N)]  DeltaE  E(N)_pert E(N)_diago
    2    10.716    -9.474    10.716    20.189    -5.094    -4.285     0.705    -0.419    -9.407     0.066    10.782    10.810

 k =    0.500   0.000   0.000
 Band     E_lda   <Vxclda>   E(N-1)  <Hhartree>   SigX  SigC[E(N-1)]    Z     dSigC/dE  Sig[E(N)]  DeltaE  E(N)_pert E(N)_diago
    1     2.778    -9.406     2.778    12.184   -11.354     2.015     0.707    -0.415    -9.359     0.047     2.825     2.845
    2     2.924    -9.500     2.924    12.424   -11.220     1.857     0.706    -0.415    -9.403     0.097     3.021     3.061

 k =    0.250   0.250   0.000
 Band     E_lda   <Vxclda>   E(N-1)  <Hhartree>   SigX  SigC[E(N-1)]    Z     dSigC/dE  Sig[E(N)]  DeltaE  E(N)_pert E(N)_diago
    1    -1.525    -9.451    -1.525     7.926   -13.924     4.504     0.701    -0.426    -9.429     0.021    -1.503    -1.494

 k =    0.500   0.250   0.000
 Band     E_lda   <Vxclda>   E(N-1)  <Hhartree>   SigX  SigC[E(N-1)]    Z     dSigC/dE  Sig[E(N)]  DeltaE  E(N)_pert E(N)_diago
    1     2.300    -9.454     2.300    11.754   -11.665     2.324     0.691    -0.447    -9.376     0.078     2.378     2.412
    2     6.559    -9.462     6.559    16.021    -8.362    -1.006     0.705    -0.418    -9.396     0.066     6.625     6.653
    3    10.919    -9.433    10.919    20.352    -4.952    -4.351     0.716    -0.396    -9.340     0.093    11.012    11.049

 E^0_gap          4.360
 E^GW_gap         4.387
 DeltaE^GW_gap    0.027


 k =   -0.250   0.250   0.000
 Band     E_lda   <Vxclda>   E(N-1)  <Hhartree>   SigX  SigC[E(N-1)]    Z     dSigC/dE  Sig[E(N)]  DeltaE  E(N)_pert E(N)_diago
    1     0.678    -9.451     0.678    10.129   -12.665     3.355     0.677    -0.477    -9.356     0.096     0.774     0.819
    2     8.557    -9.518     8.557    18.075    -6.622    -2.805     0.711    -0.407    -9.454     0.064     8.621     8.647
    3     9.995    -9.382     9.995    19.377    -5.312    -3.952     0.716    -0.397    -9.297     0.084    10.079    10.113

 E^0_gap          1.438
 E^GW_gap         1.459
 DeltaE^GW_gap    0.020


 k =    0.500   0.500   0.000
 Band     E_lda   <Vxclda>   E(N-1)  <Hhartree>   SigX  SigC[E(N-1)]    Z     dSigC/dE  Sig[E(N)]  DeltaE  E(N)_pert E(N)_diago
    1     4.420    -9.513     4.420    13.933   -10.483     0.975     0.711    -0.406    -9.509     0.003     4.423     4.425
    2     5.700    -9.361     5.700    15.061    -8.768    -0.446     0.714    -0.401    -9.256     0.105     5.805     5.848
    3    12.621    -9.563    12.621    22.183    -4.573    -4.793     0.707    -0.414    -9.423     0.139    12.760    12.813
    4    12.803    -9.475    12.803    22.278    -4.312    -5.153     0.694    -0.440    -9.468     0.007    12.810    12.814
    5    12.803    -9.475    12.803    22.278    -4.312    -5.153     0.694    -0.441    -9.468     0.007    12.811    12.817

 E^0_gap          6.920
 E^GW_gap         6.954
 DeltaE^GW_gap    0.034


 k =   -0.250   0.500   0.250
 Band     E_lda   <Vxclda>   E(N-1)  <Hhartree>   SigX  SigC[E(N-1)]    Z     dSigC/dE  Sig[E(N)]  DeltaE  E(N)_pert E(N)_diago
    1     6.487    -9.513     6.487    16.000    -8.627    -0.829     0.703    -0.423    -9.473     0.040     6.527     6.544
    2     6.487    -9.515     6.487    16.002    -8.629    -0.830     0.703    -0.423    -9.475     0.040     6.527     6.544
    3     7.537    -9.291     7.537    16.827    -7.098    -2.037     0.710    -0.408    -9.180     0.110     7.647     7.692
    4     8.261    -9.455     8.261    17.716    -6.543    -2.806     0.706    -0.416    -9.381     0.075     8.335     8.366

 E^0_gap          1.050
 E^GW_gap         1.120
 DeltaE^GW_gap    0.070

 New Fermi energy :        2.662411E-01 Ha ,    7.244788E+00 eV

 writing QP data on file : tgw2_3o_QPS

== END DATASET(S) ==============================================================
================================================================================
  
 -outvars: echo values of variables after computation  --------
     acell    7.6520000000E+00  7.6520000000E+00  7.6520000000E+00 Bohr
       amu    2.69815390E+01
      bdgw         1       1       2       2       1       2       1       1
                   1       3       1       3       1       5       1       4
      ecut    8.00000000E+00 Hartree
  ecutsigx    6.50000000E+00 Hartree
   ecutwfn    6.50000000E+00 Hartree
    enunit         1
    etotal    0.0000000000E+00
     fcart    0.0000000000E+00  0.0000000000E+00  0.0000000000E+00
 gwcalctyp        12
    istwfk      1    0    1    0    0    0    1    0
       ixc         7
       kpt    0.00000000E+00  0.00000000E+00  0.00000000E+00
              2.50000000E-01  0.00000000E+00  0.00000000E+00
              5.00000000E-01  0.00000000E+00  0.00000000E+00
              2.50000000E-01  2.50000000E-01  0.00000000E+00
              5.00000000E-01  2.50000000E-01  0.00000000E+00
             -2.50000000E-01  2.50000000E-01  0.00000000E+00
              5.00000000E-01  5.00000000E-01  0.00000000E+00
             -2.50000000E-01  5.00000000E-01  2.50000000E-01
     kptgw    0.00000000E+00  0.00000000E+00  0.00000000E+00
              2.50000000E-01  0.00000000E+00  0.00000000E+00
              5.00000000E-01  0.00000000E+00  0.00000000E+00
              2.50000000E-01  2.50000000E-01  0.00000000E+00
              5.00000000E-01  2.50000000E-01  0.00000000E+00
             -2.50000000E-01  2.50000000E-01  0.00000000E+00
              5.00000000E-01  5.00000000E-01  0.00000000E+00
             -2.50000000E-01  5.00000000E-01  2.50000000E-01
   kptrlen    2.16431244E+01
    kptopt         1
  kptrlatt    4  0  0   0  4  0   0  0  4
P    mkmem         8
     natom         1
     nband        30
     ngfft        15      15      15
    nkptgw         8
      nkpt         8
     nstep        50
      nsym        48
    ntypat         1
       occ    2.000000  1.000000  0.000000  0.000000  0.000000  0.000000
              0.000000  0.000000  0.000000  0.000000  0.000000  0.000000
              0.000000  0.000000  0.000000  0.000000  0.000000  0.000000
              0.000000  0.000000  0.000000  0.000000  0.000000  0.000000
              0.000000  0.000000  0.000000  0.000000  0.000000  0.000000
              2.000000  1.000000  0.000000  0.000000  0.000000  0.000000
              0.000000  0.000000  0.000000  0.000000  0.000000  0.000000
              0.000000  0.000000  0.000000  0.000000  0.000000  0.000000
              0.000000  0.000000  0.000000  0.000000  0.000000  0.000000
              0.000000  0.000000  0.000000  0.000000  0.000000  0.000000
              2.000000  1.000000  0.000000  0.000000  0.000000  0.000000
              0.000000  0.000000  0.000000  0.000000  0.000000  0.000000
              0.000000  0.000000  0.000000  0.000000  0.000000  0.000000
              0.000000  0.000000  0.000000  0.000000  0.000000  0.000000
              0.000000  0.000000  0.000000  0.000000  0.000000  0.000000
              2.000000  1.000000  0.000000  0.000000  0.000000  0.000000
              0.000000  0.000000  0.000000  0.000000  0.000000  0.000000
              0.000000  0.000000  0.000000  0.000000  0.000000  0.000000
              0.000000  0.000000  0.000000  0.000000  0.000000  0.000000
              0.000000  0.000000  0.000000  0.000000  0.000000  0.000000
              2.000000  1.000000  0.000000  0.000000  0.000000  0.000000
              0.000000  0.000000  0.000000  0.000000  0.000000  0.000000
              0.000000  0.000000  0.000000  0.000000  0.000000  0.000000
              0.000000  0.000000  0.000000  0.000000  0.000000  0.000000
              0.000000  0.000000  0.000000  0.000000  0.000000  0.000000
              2.000000  1.000000  0.000000  0.000000  0.000000  0.000000
              0.000000  0.000000  0.000000  0.000000  0.000000  0.000000
              0.000000  0.000000  0.000000  0.000000  0.000000  0.000000
              0.000000  0.000000  0.000000  0.000000  0.000000  0.000000
              0.000000  0.000000  0.000000  0.000000  0.000000  0.000000
              2.000000  1.000000  0.000000  0.000000  0.000000  0.000000
              0.000000  0.000000  0.000000  0.000000  0.000000  0.000000
              0.000000  0.000000  0.000000  0.000000  0.000000  0.000000
              0.000000  0.000000  0.000000  0.000000  0.000000  0.000000
              0.000000  0.000000  0.000000  0.000000  0.000000  0.000000
              2.000000  1.000000  0.000000  0.000000  0.000000  0.000000
              0.000000  0.000000  0.000000  0.000000  0.000000  0.000000
              0.000000  0.000000  0.000000  0.000000  0.000000  0.000000
              0.000000  0.000000  0.000000  0.000000  0.000000  0.000000
              0.000000  0.000000  0.000000  0.000000  0.000000  0.000000
    occopt         3
 optdriver         4
    prtvol         5
     rprim    0.0000000000E+00  5.0000000000E-01  5.0000000000E-01
              5.0000000000E-01  0.0000000000E+00  5.0000000000E-01
              5.0000000000E-01  5.0000000000E-01  0.0000000000E+00
   spgroup       225
    strten    0.0000000000E+00  0.0000000000E+00  0.0000000000E+00
              0.0000000000E+00  0.0000000000E+00  0.0000000000E+00
    symrel    1  0  0   0  1  0   0  0  1      -1  0  0   0 -1  0   0  0 -1
              0 -1  1   0 -1  0   1 -1  0       0  1 -1   0  1  0  -1  1  0
             -1  0  0  -1  0  1  -1  1  0       1  0  0   1  0 -1   1 -1  0
              0  1 -1   1  0 -1   0  0 -1       0 -1  1  -1  0  1   0  0  1
             -1  0  0  -1  1  0  -1  0  1       1  0  0   1 -1  0   1  0 -1
              0 -1  1   1 -1  0   0 -1  0       0  1 -1  -1  1  0   0  1  0
              1  0  0   0  0  1   0  1  0      -1  0  0   0  0 -1   0 -1  0
              0  1 -1   0  0 -1   1  0 -1       0 -1  1   0  0  1  -1  0  1
             -1  0  1  -1  1  0  -1  0  0       1  0 -1   1 -1  0   1  0  0
              0 -1  0   1 -1  0   0 -1  1       0  1  0  -1  1  0   0  1 -1
              1  0 -1   0  0 -1   0  1 -1      -1  0  1   0  0  1   0 -1  1
              0  1  0   0  0  1   1  0  0       0 -1  0   0  0 -1  -1  0  0
              1  0 -1   0  1 -1   0  0 -1      -1  0  1   0 -1  1   0  0  1
              0 -1  0   0 -1  1   1 -1  0       0  1  0   0  1 -1  -1  1  0
             -1  0  1  -1  0  0  -1  1  0       1  0 -1   1  0  0   1 -1  0
              0  1  0   1  0  0   0  0  1       0 -1  0  -1  0  0   0  0 -1
              0  0 -1   0  1 -1   1  0 -1       0  0  1   0 -1  1  -1  0  1
              1 -1  0   0 -1  1   0 -1  0      -1  1  0   0  1 -1   0  1  0
              0  0  1   1  0  0   0  1  0       0  0 -1  -1  0  0   0 -1  0
             -1  1  0  -1  0  0  -1  0  1       1 -1  0   1  0  0   1  0 -1
              0  0  1   0  1  0   1  0  0       0  0 -1   0 -1  0  -1  0  0
              1 -1  0   0 -1  0   0 -1  1      -1  1  0   0  1  0   0  1 -1
              0  0 -1   1  0 -1   0  1 -1       0  0  1  -1  0  1   0 -1  1
             -1  1  0  -1  0  1  -1  0  0       1 -1  0   1  0 -1   1  0  0
    toldfe    1.00000000E-08 Hartree
    tsmear    5.00000000E-02 Hartree
     typat    1
       wtk      0.01563    0.12500    0.06250    0.09375    0.37500    0.18750
                0.04688    0.09375
     znucl     13.00000

================================================================================

- Total cpu        time (s,m,h):         48.5        0.81      0.013
- Total wall clock time (s,m,h):         48.5        0.81      0.013

- For major independent code sections, cpu and wall times (sec),
- as well as % of the total time and number of calls 

- routine                 cpu     %       wall     %      number of calls 
-                                                          (-1=no count)
- sigma/=fourdp         40.069  82.7     40.194  82.9              1
- fourdp                 7.798  16.1      7.673  15.8          54268
- timing timab           0.356   0.7      0.356   0.7             11
- pspini                 0.252   0.5      0.252   0.5              1
- 66   others            0.167   0.3      0.161   0.3

- subtotal              48.642 100.4     48.636 100.4

================================================================================

 Calculation completed.
.Delivered    7 WARNINGs and   0 COMMENTs to log file.
+Overall time at end (sec) : cpu=         48.5  wall=         48.5
