
.Version 5.6.3  of ABINIT 
.(sequential version, prepared for a x86_64_linux_gcc4.3 computer) 

.Copyright (C) 1998-2008 ABINIT group . 
 ABINIT comes with ABSOLUTELY NO WARRANTY.
 It is free software, and you are welcome to redistribute it
 under certain conditions (GNU General Public License,
 see ~abinit/COPYING or http://www.gnu.org/copyleft/gpl.txt).

 ABINIT is a project of the Universite Catholique de Louvain,
 Corning Inc. and other collaborators, see ~abinit/doc/developers/contributors.txt .
 Please read ~abinit/doc/users/acknowledgments.html for suggested
 acknowledgments of the ABINIT effort.
 For more information, see http://www.abinit.org .

.Starting date : Thu  6 Nov 2008.
  
- input  file    -> /home/gonze/ABINIT/ABINITv5.6.3/test_gcc43/5.6.3-private/tests/tutorial/Input/tgw2_1.in
- output file    -> tgw2_1.out
- root for input  files -> tgw2_1i
- root for output files -> tgw2_1o


 Symmetries : space group Fm -3 m (#225); Bravais cF (face-center cubic)
================================================================================
 Values of the parameters that define the memory need of the present run
   intxc =         0  ionmov =         0    iscf =         7 xclevel =         1
  lmnmax =         3   lnmax =         3   mband =         6  mffmem =         1
P  mgfft =        15   mkmem =         8 mpssoang=         3     mpw =       126
  mqgrid =      3001   natom =         1    nfft =      3375    nkpt =         8
  nloalg =         4  nspden =         1 nspinor =         1  nsppol =         1
    nsym =        48  n1xccc =         0  ntypat =         1  occopt =         3
================================================================================
P This job should need less than                       2.254 Mbytes of memory.
  Rough estimation (10% accuracy) of disk space for files :
  WF disk file :      0.094 Mbytes ; DEN or POT disk file :      0.028 Mbytes.
================================================================================

 -outvars: echo values of preprocessed input variables --------
     acell    7.6520000000E+00  7.6520000000E+00  7.6520000000E+00 Bohr
       amu    2.69815390E+01
      ecut    8.00000000E+00 Hartree
    enunit         1
    istwfk      1    0    1    0    0    0    1    0
       ixc         7
       kpt    0.00000000E+00  0.00000000E+00  0.00000000E+00
              2.50000000E-01  0.00000000E+00  0.00000000E+00
              5.00000000E-01  0.00000000E+00  0.00000000E+00
              2.50000000E-01  2.50000000E-01  0.00000000E+00
              5.00000000E-01  2.50000000E-01  0.00000000E+00
             -2.50000000E-01  2.50000000E-01  0.00000000E+00
              5.00000000E-01  5.00000000E-01  0.00000000E+00
             -2.50000000E-01  5.00000000E-01  2.50000000E-01
   kptrlen    2.16431244E+01
    kptopt         1
  kptrlatt    4  0  0   0  4  0   0  0  4
P    mkmem         8
     natom         1
     nband         6
     ngfft        15      15      15
      nkpt         8
     nstep        50
      nsym        48
    ntypat         1
       occ    2.000000  1.000000  0.000000  0.000000  0.000000  0.000000
              2.000000  1.000000  0.000000  0.000000  0.000000  0.000000
              2.000000  1.000000  0.000000  0.000000  0.000000  0.000000
              2.000000  1.000000  0.000000  0.000000  0.000000  0.000000
              2.000000  1.000000  0.000000  0.000000  0.000000  0.000000
              2.000000  1.000000  0.000000  0.000000  0.000000  0.000000
              2.000000  1.000000  0.000000  0.000000  0.000000  0.000000
              2.000000  1.000000  0.000000  0.000000  0.000000  0.000000
    occopt         3
    prtvol         5
     prtwf         0
     rprim    0.0000000000E+00  5.0000000000E-01  5.0000000000E-01
              5.0000000000E-01  0.0000000000E+00  5.0000000000E-01
              5.0000000000E-01  5.0000000000E-01  0.0000000000E+00
   spgroup       225
    symrel    1  0  0   0  1  0   0  0  1      -1  0  0   0 -1  0   0  0 -1
              0 -1  1   0 -1  0   1 -1  0       0  1 -1   0  1  0  -1  1  0
             -1  0  0  -1  0  1  -1  1  0       1  0  0   1  0 -1   1 -1  0
              0  1 -1   1  0 -1   0  0 -1       0 -1  1  -1  0  1   0  0  1
             -1  0  0  -1  1  0  -1  0  1       1  0  0   1 -1  0   1  0 -1
              0 -1  1   1 -1  0   0 -1  0       0  1 -1  -1  1  0   0  1  0
              1  0  0   0  0  1   0  1  0      -1  0  0   0  0 -1   0 -1  0
              0  1 -1   0  0 -1   1  0 -1       0 -1  1   0  0  1  -1  0  1
             -1  0  1  -1  1  0  -1  0  0       1  0 -1   1 -1  0   1  0  0
              0 -1  0   1 -1  0   0 -1  1       0  1  0  -1  1  0   0  1 -1
              1  0 -1   0  0 -1   0  1 -1      -1  0  1   0  0  1   0 -1  1
              0  1  0   0  0  1   1  0  0       0 -1  0   0  0 -1  -1  0  0
              1  0 -1   0  1 -1   0  0 -1      -1  0  1   0 -1  1   0  0  1
              0 -1  0   0 -1  1   1 -1  0       0  1  0   0  1 -1  -1  1  0
             -1  0  1  -1  0  0  -1  1  0       1  0 -1   1  0  0   1 -1  0
              0  1  0   1  0  0   0  0  1       0 -1  0  -1  0  0   0  0 -1
              0  0 -1   0  1 -1   1  0 -1       0  0  1   0 -1  1  -1  0  1
              1 -1  0   0 -1  1   0 -1  0      -1  1  0   0  1 -1   0  1  0
              0  0  1   1  0  0   0  1  0       0  0 -1  -1  0  0   0 -1  0
             -1  1  0  -1  0  0  -1  0  1       1 -1  0   1  0  0   1  0 -1
              0  0  1   0  1  0   1  0  0       0  0 -1   0 -1  0  -1  0  0
              1 -1  0   0 -1  0   0 -1  1      -1  1  0   0  1  0   0  1 -1
              0  0 -1   1  0 -1   0  1 -1       0  0  1  -1  0  1   0 -1  1
             -1  1  0  -1  0  1  -1  0  0       1 -1  0   1  0 -1   1  0  0
    toldfe    1.00000000E-08 Hartree
    tsmear    5.00000000E-02 Hartree
     typat    1
       wtk      0.01563    0.12500    0.06250    0.09375    0.37500    0.18750
                0.04688    0.09375
     znucl     13.00000

================================================================================

 chkinp: Checking input parameters for consistency.

================================================================================
== DATASET  1 ==================================================================

 Real(R)+Recip(G) space primitive vectors, cartesian coordinates (Bohr,Bohr^-1):
 R(1)=  0.0000000  3.8260000  3.8260000  G(1)= -0.1306848  0.1306848  0.1306848
 R(2)=  3.8260000  0.0000000  3.8260000  G(2)=  0.1306848 -0.1306848  0.1306848
 R(3)=  3.8260000  3.8260000  0.0000000  G(3)=  0.1306848  0.1306848 -0.1306848
 Unit cell volume ucvol=  1.1201209E+02 bohr^3
 Angles (23,13,12)=  6.00000000E+01  6.00000000E+01  6.00000000E+01 degrees

 getcut: wavevector=  0.0000  0.0000  0.0000  ngfft=  15  15  15
         ecut(hartree)=      8.000   => boxcut(ratio)=   2.04250

--- Pseudopotential description ------------------------------------------------
- pspini: atom type   1  psp file is /home/gonze/ABINIT/ABINITv5.6.3/test_gcc43/5.6.3-private/tests/Psps_for_tests/13al.981214.fhi
- pspatm: opening atomic psp file    /home/gonze/ABINIT/ABINITv5.6.3/test_gcc43/5.6.3-private/tests/Psps_for_tests/13al.981214.fhi
 Aluminum, fhi98PP : Hamann-type, LDA CA PerdewWang, l=2 local
  13.00000   3.00000    981214                znucl, zion, pspdat
    6    7    2    2       493   0.00000      pspcod,pspxc,lmax,lloc,mmax,r2well
  No XC core correction.
  1.024700          amesh (Hamman grid)
 pspatm: epsatm=    1.36305739
         --- l  ekb(1:nproj) -->
             0    1.768744
             1    0.900554
 pspatm: atomic psp has been read  and splines computed

   4.08917216E+00                                ecore*ucvol(ha*bohr**3)
--------------------------------------------------------------------------------

P newkpt: treating      6 bands with npw=     113 for ikpt=   1
P newkpt: treating      6 bands with npw=     126 for ikpt=   2
P newkpt: treating      6 bands with npw=     120 for ikpt=   3
P newkpt: treating      6 bands with npw=     125 for ikpt=   4
P newkpt: treating      6 bands with npw=     121 for ikpt=   5
P newkpt: treating      6 bands with npw=     125 for ikpt=   6
P newkpt: treating      6 bands with npw=     116 for ikpt=   7
P newkpt: treating      6 bands with npw=     116 for ikpt=   8

 setup2: Arith. and geom. avg. npw (full set) are     121.859     121.812

================================================================================

     iter   Etot(hartree)      deltaE(h)  residm     vres2    diffor    maxfor
 ETOT  1  -2.1429846448520    -2.143E+00 8.450E-03 3.990E-01 0.000E+00 0.000E+00
 ETOT  2  -2.1436270779268    -6.424E-04 1.352E-04 9.643E-03 0.000E+00 0.000E+00
 ETOT  3  -2.1436328506369    -5.773E-06 1.316E-04 4.666E-05 0.000E+00 0.000E+00
 ETOT  4  -2.1436328808608    -3.022E-08 2.002E-05 3.003E-07 0.000E+00 0.000E+00
 ETOT  5  -2.1436328811364    -2.757E-10 1.180E-05 1.127E-09 0.000E+00 0.000E+00
 ETOT  6  -2.1436328811942    -5.772E-11 3.444E-06 1.639E-12 0.000E+00 0.000E+00

 At SCF step    6, etot is converged :
  for the second time, diff in etot=  5.772E-11 < toldfe=  1.000E-08

 Cartesian components of stress tensor (hartree/bohr^3)
  sigma(1 1)= -1.50669055E-04  sigma(3 2)=  0.00000000E+00
  sigma(2 2)= -1.50669055E-04  sigma(3 1)=  0.00000000E+00
  sigma(3 3)= -1.50669055E-04  sigma(2 1)=  0.00000000E+00


======================================================================
 Calculating and writing out Kohn-Sham electronic Structure file
 Using diagonalized wavefunctions and energies (kssform=1)
 number of Gamma centered plane waves    229
 number of Gamma centered shells     14
 number of bands     30
 maximum angular momentum components      3
 Diagonalized eigenvalues
   k    eigenvalues [eV]
   1       -3.76   19.92   19.92   19.92   21.00   21.00   21.00   23.88   26.71
           26.71   29.15   31.73   31.73   31.73   38.00   60.59   60.59   60.59
           63.51   63.51   63.77   63.77   63.77   67.11   67.28   67.28   67.28
           85.89   85.89   88.52
   2       -2.08   10.72   18.06   18.06   21.49   21.89   21.89   25.91   26.04
           26.04   31.63   37.67   39.40   39.40   44.61   47.79   47.79   51.58
           63.24   63.24   64.85   65.15   67.48   67.48   70.14   70.55   70.55
           77.41   79.47   79.47
   3        2.78    2.92   18.41   18.41   18.77   18.77   22.18   22.53   32.20
           32.20   37.69   37.69   38.17   43.26   50.07   51.81   51.81   53.80
           54.39   54.39   58.45   59.03   65.67   65.67   67.47   68.68   71.46
           71.46   73.76   73.76
   4       -1.52   14.71   14.71   14.83   15.49   18.03   28.77   28.93   28.93
           33.47   33.82   34.93   34.93   37.89   48.21   48.33   48.33   50.33
           53.54   62.09   63.95   66.65   66.65   68.09   68.17   68.17   69.76
           80.67   80.72   80.72
   5        2.30    6.56   10.92   14.24   15.94   23.16   25.83   28.59   31.85
           32.72   38.44   39.65   41.91   44.66   45.38   48.18   50.49   51.18
           53.26   55.40   58.00   58.87   61.97   63.24   65.78   66.38   68.49
           69.54   70.87   76.43
   6        0.68    8.56   10.00   16.64   18.62   24.28   24.64   25.80   28.18
           32.64   34.98   37.39   43.03   43.59   48.28   48.73   52.32   52.75
           53.42   55.60   58.41   60.23   61.72   63.08   65.18   69.51   70.14
           70.23   77.94   78.27
   7        4.42    5.70   12.62   12.80   12.80   16.13   32.83   34.41   34.41
           39.71   39.79   39.79   40.39   42.30   47.98   47.98   48.33   48.33
           48.84   49.36   49.48   49.78   65.66   69.57   72.12   72.12   73.85
           74.87   75.16   75.39
   8        6.49    6.49    7.54    8.26   23.04   23.04   23.32   25.45   34.65
           39.48   41.10   41.10   42.22   42.53   42.53   44.38   52.85   52.85
           56.17   57.67   59.27   59.57   59.83   60.28   60.38   60.38   62.85
           62.85   75.52   76.87
 Test on the normalization of the wavefunctions
  min sum_G |a(n,k,G)| =  1.000000
  max sum_G |a(n,k,G)| =  1.000000
 Test on the orthogonalization of the wavefunctions
  min sum_G a(n,k,G)* a(n',k,G) =  0.000000
  max sum_G a(n,k,G)* a(n',k,G) =  0.000000

================================================================================

 ----iterations are completed or convergence reached----

 Mean square residual over all n,k,spin=   7.3360E-08; max=  3.4445E-06
   0.0000  0.0000  0.0000    1  8.64611E-10 kpt; spin; max resid(k); each band:
 1.75E-15 1.05E-16 3.67E-11 8.65E-10 2.64E-15 7.83E-15
   0.2500  0.0000  0.0000    1  1.03227E-09 kpt; spin; max resid(k); each band:
 3.11E-14 6.35E-15 1.36E-14 1.47E-14 1.03E-09 2.65E-14
   0.5000  0.0000  0.0000    1  5.65167E-16 kpt; spin; max resid(k); each band:
 1.23E-16 4.81E-16 5.65E-16 2.85E-16 4.78E-16 3.87E-16
   0.2500  0.2500  0.0000    1  1.04344E-13 kpt; spin; max resid(k); each band:
 3.74E-14 4.22E-16 4.22E-16 5.10E-17 6.77E-14 1.04E-13
   0.5000  0.2500  0.0000    1  7.37505E-14 kpt; spin; max resid(k); each band:
 3.86E-14 1.63E-14 6.60E-14 1.41E-15 4.89E-14 7.38E-14
  -0.2500  0.2500  0.0000    1  3.44447E-06 kpt; spin; max resid(k); each band:
 1.75E-14 5.93E-17 6.94E-14 3.22E-16 5.27E-14 3.44E-06
   0.5000  0.5000  0.0000    1  1.10728E-13 kpt; spin; max resid(k); each band:
 3.30E-17 1.11E-13 4.15E-17 4.59E-17 4.59E-17 1.11E-13
  -0.2500  0.5000  0.2500    1  7.48498E-08 kpt; spin; max resid(k); each band:
 1.14E-16 1.14E-16 1.68E-16 9.69E-16 5.92E-12 7.48E-08
 reduced coordinates (array xred) for    1 atoms
       0.000000000000      0.000000000000      0.000000000000
 rms dE/dt=  0.0000E+00; max dE/dt=  0.0000E+00; dE/dt below (all hartree)
    1       0.000000000000      0.000000000000      0.000000000000

 cartesian coordinates (angstrom) at end:
    1      0.00000000000000     0.00000000000000     0.00000000000000

 cartesian forces (hartree/bohr) at end:
    1     -0.00000000000000    -0.00000000000000    -0.00000000000000
 frms,max,avg= 0.0000000E+00 0.0000000E+00   0.000E+00  0.000E+00  0.000E+00 h/b

 cartesian forces (eV/Angstrom) at end:
    1     -0.00000000000000    -0.00000000000000    -0.00000000000000
 frms,max,avg= 0.0000000E+00 0.0000000E+00   0.000E+00  0.000E+00  0.000E+00 e/A
 length scales=  7.652000000000  7.652000000000  7.652000000000 bohr
              =  4.049264000131  4.049264000131  4.049264000131 angstroms
 prteigrs : about to open file tgw2_1o_EIG
 Fermi (or HOMO) energy (eV) =   7.14774   Average Vxc (eV)=  -9.35982
 Eigenvalues (   eV  ) for nkpt=   8  k points:
 kpt#   1, nband=  6, wtk=  0.01563, kpt=  0.0000  0.0000  0.0000 (reduced coord)
  -3.76175  19.92114  19.92114  19.92114  21.00078  21.00078
 kpt#   2, nband=  6, wtk=  0.12500, kpt=  0.2500  0.0000  0.0000 (reduced coord)
  -2.08072  10.71588  18.06364  18.06364  21.49134  21.88616
 kpt#   3, nband=  6, wtk=  0.06250, kpt=  0.5000  0.0000  0.0000 (reduced coord)
   2.77804   2.92411  18.40863  18.40863  18.77375  18.77375
 kpt#   4, nband=  6, wtk=  0.09375, kpt=  0.2500  0.2500  0.0000 (reduced coord)
  -1.52478  14.70902  14.70902  14.83193  15.48599  18.02783
 kpt#   5, nband=  6, wtk=  0.37500, kpt=  0.5000  0.2500  0.0000 (reduced coord)
   2.30006   6.55873  10.91877  14.24036  15.94222  23.16106
 kpt#   6, nband=  6, wtk=  0.18750, kpt= -0.2500  0.2500  0.0000 (reduced coord)
   0.67773   8.55700   9.99523  16.64050  18.61594  24.27910
 kpt#   7, nband=  6, wtk=  0.04688, kpt=  0.5000  0.5000  0.0000 (reduced coord)
   4.42012   5.70035  12.62062  12.80329  12.80329  16.12534
 kpt#   8, nband=  6, wtk=  0.09375, kpt= -0.2500  0.5000  0.2500 (reduced coord)
   6.48692   6.48692   7.53686   8.26063  23.04213  23.04215
 Total charge density [el/Bohr^3]
,     Maximum=    3.2157E-02  at reduced coord.    0.0000    0.3333    0.6667
,Next maximum=    3.2157E-02  at reduced coord.    0.3333    0.0000    0.6667
,     Minimum=    2.3589E-03  at reduced coord.    0.0000    0.0000    0.0000
,Next minimum=    4.5009E-03  at reduced coord.    0.0667    0.0000    0.0000

--------------------------------------------------------------------------------
 Components of total free energy (in Hartree) :

    Kinetic energy  =  8.99900174703527E-01
    Hartree energy  =  3.56282494209747E-03
    XC energy       = -7.99977691200678E-01
    Ewald energy    = -2.69627278273813E+00
    PspCore energy  =  3.65065256190383E-02
    Loc. psp. energy=  6.06714356440692E-02
    NL   psp  energy=  4.47003683992343E-01
    >>>>> Internal E= -2.04860582903774E+00

    -kT*entropy     = -9.50270521564346E-02
    >>>>>>>>> Etotal= -2.14363288119417E+00

 Other information on the energy :
    Total energy(eV)= -5.83312171850923E+01 ; Band energy (Ha)=   3.7215178542E-01
--------------------------------------------------------------------------------

 Cartesian components of stress tensor (hartree/bohr^3)
  sigma(1 1)= -1.50669055E-04  sigma(3 2)=  0.00000000E+00
  sigma(2 2)= -1.50669055E-04  sigma(3 1)=  0.00000000E+00
  sigma(3 3)= -1.50669055E-04  sigma(2 1)=  0.00000000E+00

-Cartesian components of stress tensor (GPa)         [Pressure=  4.4328E+00 GPa]
- sigma(1 1)= -4.43283590E+00  sigma(3 2)=  0.00000000E+00
- sigma(2 2)= -4.43283590E+00  sigma(3 1)=  0.00000000E+00
- sigma(3 3)= -4.43283590E+00  sigma(2 1)=  0.00000000E+00

== END DATASET(S) ==============================================================
================================================================================
  
 -outvars: echo values of variables after computation  --------
     acell    7.6520000000E+00  7.6520000000E+00  7.6520000000E+00 Bohr
       amu    2.69815390E+01
      ecut    8.00000000E+00 Hartree
    enunit         1
    etotal   -2.1436328812E+00
     fcart   -0.0000000000E+00 -0.0000000000E+00 -0.0000000000E+00
    istwfk      1    0    1    0    0    0    1    0
       ixc         7
       kpt    0.00000000E+00  0.00000000E+00  0.00000000E+00
              2.50000000E-01  0.00000000E+00  0.00000000E+00
              5.00000000E-01  0.00000000E+00  0.00000000E+00
              2.50000000E-01  2.50000000E-01  0.00000000E+00
              5.00000000E-01  2.50000000E-01  0.00000000E+00
             -2.50000000E-01  2.50000000E-01  0.00000000E+00
              5.00000000E-01  5.00000000E-01  0.00000000E+00
             -2.50000000E-01  5.00000000E-01  2.50000000E-01
   kptrlen    2.16431244E+01
    kptopt         1
  kptrlatt    4  0  0   0  4  0   0  0  4
P    mkmem         8
     natom         1
     nband         6
     ngfft        15      15      15
      nkpt         8
     nstep        50
      nsym        48
    ntypat         1
       occ    1.999341  0.000167  0.000167  0.000167  0.000076  0.000076
              1.997736  0.135404  0.000655  0.000655  0.000053  0.000039
              1.922542  1.914140  0.000509  0.000509  0.000389  0.000389
              1.996596  0.007688  0.007688  0.007026  0.004350  0.000673
              1.944855  1.213141  0.117750  0.010832  0.003113  0.000015
              1.982936  0.523929  0.219584  0.001864  0.000437  0.000007
              1.762592  1.486838  0.035186  0.030834  0.030834  0.002721
              1.238182  1.238182  0.857967  0.612396  0.000017  0.000017
    occopt         3
    prtvol         5
     prtwf         0
     rprim    0.0000000000E+00  5.0000000000E-01  5.0000000000E-01
              5.0000000000E-01  0.0000000000E+00  5.0000000000E-01
              5.0000000000E-01  5.0000000000E-01  0.0000000000E+00
   spgroup       225
    strten   -1.5066905508E-04 -1.5066905508E-04 -1.5066905508E-04
              0.0000000000E+00  0.0000000000E+00  0.0000000000E+00
    symrel    1  0  0   0  1  0   0  0  1      -1  0  0   0 -1  0   0  0 -1
              0 -1  1   0 -1  0   1 -1  0       0  1 -1   0  1  0  -1  1  0
             -1  0  0  -1  0  1  -1  1  0       1  0  0   1  0 -1   1 -1  0
              0  1 -1   1  0 -1   0  0 -1       0 -1  1  -1  0  1   0  0  1
             -1  0  0  -1  1  0  -1  0  1       1  0  0   1 -1  0   1  0 -1
              0 -1  1   1 -1  0   0 -1  0       0  1 -1  -1  1  0   0  1  0
              1  0  0   0  0  1   0  1  0      -1  0  0   0  0 -1   0 -1  0
              0  1 -1   0  0 -1   1  0 -1       0 -1  1   0  0  1  -1  0  1
             -1  0  1  -1  1  0  -1  0  0       1  0 -1   1 -1  0   1  0  0
              0 -1  0   1 -1  0   0 -1  1       0  1  0  -1  1  0   0  1 -1
              1  0 -1   0  0 -1   0  1 -1      -1  0  1   0  0  1   0 -1  1
              0  1  0   0  0  1   1  0  0       0 -1  0   0  0 -1  -1  0  0
              1  0 -1   0  1 -1   0  0 -1      -1  0  1   0 -1  1   0  0  1
              0 -1  0   0 -1  1   1 -1  0       0  1  0   0  1 -1  -1  1  0
             -1  0  1  -1  0  0  -1  1  0       1  0 -1   1  0  0   1 -1  0
              0  1  0   1  0  0   0  0  1       0 -1  0  -1  0  0   0  0 -1
              0  0 -1   0  1 -1   1  0 -1       0  0  1   0 -1  1  -1  0  1
              1 -1  0   0 -1  1   0 -1  0      -1  1  0   0  1 -1   0  1  0
              0  0  1   1  0  0   0  1  0       0  0 -1  -1  0  0   0 -1  0
             -1  1  0  -1  0  0  -1  0  1       1 -1  0   1  0  0   1  0 -1
              0  0  1   0  1  0   1  0  0       0  0 -1   0 -1  0  -1  0  0
              1 -1  0   0 -1  0   0 -1  1      -1  1  0   0  1  0   0  1 -1
              0  0 -1   1  0 -1   0  1 -1       0  0  1  -1  0  1   0 -1  1
             -1  1  0  -1  0  1  -1  0  0       1 -1  0   1  0 -1   1  0  0
    toldfe    1.00000000E-08 Hartree
    tsmear    5.00000000E-02 Hartree
     typat    1
       wtk      0.01563    0.12500    0.06250    0.09375    0.37500    0.18750
                0.04688    0.09375
     znucl     13.00000

================================================================================

- Total cpu        time (s,m,h):          1.7        0.03      0.000
- Total wall clock time (s,m,h):          1.7        0.03      0.000

- For major independent code sections, cpu and wall times (sec),
- as well as % of the total time and number of calls 

- routine                 cpu     %       wall     %      number of calls 
-                                                          (-1=no count)
- timing timab           0.349  20.4      0.349  20.4             11
- fourwf(pot)            0.288  16.8      0.283  16.5           1683
- pspini                 0.252  14.7      0.252  14.7              1
- vtowfk(ssdiag)         0.170   9.9      0.163   9.5             -1
- status                 0.161   9.4      0.152   8.9            995
- invars2                0.104   6.1      0.104   6.1              1
- outkss(diago)          0.071   4.1      0.069   4.0              8
- nonlop(apply)          0.035   2.0      0.038   2.2           2645
- abinit(2)              0.029   1.7      0.030   1.8              1
- fourwf(den)            0.024   1.4      0.024   1.4            288
- projbd                 0.022   1.3      0.023   1.3           2598
- getghc-other           0.019   1.1      0.019   1.1             -1
- outkss(k-loop2)        0.016   0.9      0.018   1.1              8
- forces                 0.010   0.6      0.011   0.6              6
- vtorho(4)-mkrho-       0.009   0.5      0.009   0.5             12
- vtowfk(contrib)        0.002   0.1      0.010   0.6             48
- 54   others            0.032   1.9      0.039   2.3

- subtotal               1.593  93.1      1.593  93.1

================================================================================

 Calculation completed.
.Delivered    0 WARNINGs and   0 COMMENTs to log file.
+Overall time at end (sec) : cpu=          1.7  wall=          1.7
