
.Version 5.6.3  of ABINIT 
.(sequential version, prepared for a x86_64_linux_gcc4.3 computer) 

.Copyright (C) 1998-2008 ABINIT group . 
 ABINIT comes with ABSOLUTELY NO WARRANTY.
 It is free software, and you are welcome to redistribute it
 under certain conditions (GNU General Public License,
 see ~abinit/COPYING or http://www.gnu.org/copyleft/gpl.txt).

 ABINIT is a project of the Universite Catholique de Louvain,
 Corning Inc. and other collaborators, see ~abinit/doc/developers/contributors.txt .
 Please read ~abinit/doc/users/acknowledgments.html for suggested
 acknowledgments of the ABINIT effort.
 For more information, see http://www.abinit.org .

.Starting date : Thu  6 Nov 2008.
  
- input  file    -> /home/gonze/ABINIT/ABINITv5.6.3/test_gcc43/5.6.3-private/tests/tutorial/Input/tgw2_2.in
- output file    -> tgw2_2.out
- root for input  files -> tgw2_2i
- root for output files -> tgw2_2o


 Symmetries : space group Fm -3 m (#225); Bravais cF (face-center cubic)
================================================================================
 Values of the parameters that define the memory need of the present run
   intxc =         0  ionmov =         0    iscf =         7 xclevel =         1
  lmnmax =         3   lnmax =         3   mband =        30  mffmem =         1
P  mgfft =        15   mkmem =         8 mpssoang=         3     mpw =       126
  mqgrid =      3001   natom =         1    nfft =      3375    nkpt =         8
  nloalg =         4  nspden =         1 nspinor =         1  nsppol =         1
    nsym =        48  n1xccc =         0  ntypat =         1  occopt =         3
================================================================================
P This job should need less than                       2.671 Mbytes of memory.
  Rough estimation (10% accuracy) of disk space for files :
  WF disk file :      0.463 Mbytes ; DEN or POT disk file :      0.028 Mbytes.
================================================================================

 -outvars: echo values of preprocessed input variables --------
     acell    7.6520000000E+00  7.6520000000E+00  7.6520000000E+00 Bohr
       amu    2.69815390E+01
      ecut    8.00000000E+00 Hartree
   ecuteps    4.00000000E+00 Hartree
   ecutwfn    4.00000000E+00 Hartree
    enunit         1
 freqremax    1.00000000E+00 Hartree
 gwcalctyp         2
    istwfk      1    0    1    0    0    0    1    0
       ixc         7
       kpt    0.00000000E+00  0.00000000E+00  0.00000000E+00
              2.50000000E-01  0.00000000E+00  0.00000000E+00
              5.00000000E-01  0.00000000E+00  0.00000000E+00
              2.50000000E-01  2.50000000E-01  0.00000000E+00
              5.00000000E-01  2.50000000E-01  0.00000000E+00
             -2.50000000E-01  2.50000000E-01  0.00000000E+00
              5.00000000E-01  5.00000000E-01  0.00000000E+00
             -2.50000000E-01  5.00000000E-01  2.50000000E-01
   kptrlen    2.16431244E+01
    kptopt         1
  kptrlatt    4  0  0   0  4  0   0  0  4
P    mkmem         8
     natom         1
   nfreqim         4
   nfreqre        10
     nband        30
     ngfft        15      15      15
      nkpt         8
     nstep        50
      nsym        48
    ntypat         1
       occ    2.000000  1.000000  0.000000  0.000000  0.000000  0.000000
              0.000000  0.000000  0.000000  0.000000  0.000000  0.000000
              0.000000  0.000000  0.000000  0.000000  0.000000  0.000000
              0.000000  0.000000  0.000000  0.000000  0.000000  0.000000
              0.000000  0.000000  0.000000  0.000000  0.000000  0.000000
              2.000000  1.000000  0.000000  0.000000  0.000000  0.000000
              0.000000  0.000000  0.000000  0.000000  0.000000  0.000000
              0.000000  0.000000  0.000000  0.000000  0.000000  0.000000
              0.000000  0.000000  0.000000  0.000000  0.000000  0.000000
              0.000000  0.000000  0.000000  0.000000  0.000000  0.000000
              2.000000  1.000000  0.000000  0.000000  0.000000  0.000000
              0.000000  0.000000  0.000000  0.000000  0.000000  0.000000
              0.000000  0.000000  0.000000  0.000000  0.000000  0.000000
              0.000000  0.000000  0.000000  0.000000  0.000000  0.000000
              0.000000  0.000000  0.000000  0.000000  0.000000  0.000000
              2.000000  1.000000  0.000000  0.000000  0.000000  0.000000
              0.000000  0.000000  0.000000  0.000000  0.000000  0.000000
              0.000000  0.000000  0.000000  0.000000  0.000000  0.000000
              0.000000  0.000000  0.000000  0.000000  0.000000  0.000000
              0.000000  0.000000  0.000000  0.000000  0.000000  0.000000
              2.000000  1.000000  0.000000  0.000000  0.000000  0.000000
              0.000000  0.000000  0.000000  0.000000  0.000000  0.000000
              0.000000  0.000000  0.000000  0.000000  0.000000  0.000000
              0.000000  0.000000  0.000000  0.000000  0.000000  0.000000
              0.000000  0.000000  0.000000  0.000000  0.000000  0.000000
              2.000000  1.000000  0.000000  0.000000  0.000000  0.000000
              0.000000  0.000000  0.000000  0.000000  0.000000  0.000000
              0.000000  0.000000  0.000000  0.000000  0.000000  0.000000
              0.000000  0.000000  0.000000  0.000000  0.000000  0.000000
              0.000000  0.000000  0.000000  0.000000  0.000000  0.000000
              2.000000  1.000000  0.000000  0.000000  0.000000  0.000000
              0.000000  0.000000  0.000000  0.000000  0.000000  0.000000
              0.000000  0.000000  0.000000  0.000000  0.000000  0.000000
              0.000000  0.000000  0.000000  0.000000  0.000000  0.000000
              0.000000  0.000000  0.000000  0.000000  0.000000  0.000000
              2.000000  1.000000  0.000000  0.000000  0.000000  0.000000
              0.000000  0.000000  0.000000  0.000000  0.000000  0.000000
              0.000000  0.000000  0.000000  0.000000  0.000000  0.000000
              0.000000  0.000000  0.000000  0.000000  0.000000  0.000000
              0.000000  0.000000  0.000000  0.000000  0.000000  0.000000
    occopt         3
 optdriver         3
    prtvol         5
     rprim    0.0000000000E+00  5.0000000000E-01  5.0000000000E-01
              5.0000000000E-01  0.0000000000E+00  5.0000000000E-01
              5.0000000000E-01  5.0000000000E-01  0.0000000000E+00
   spgroup       225
    symrel    1  0  0   0  1  0   0  0  1      -1  0  0   0 -1  0   0  0 -1
              0 -1  1   0 -1  0   1 -1  0       0  1 -1   0  1  0  -1  1  0
             -1  0  0  -1  0  1  -1  1  0       1  0  0   1  0 -1   1 -1  0
              0  1 -1   1  0 -1   0  0 -1       0 -1  1  -1  0  1   0  0  1
             -1  0  0  -1  1  0  -1  0  1       1  0  0   1 -1  0   1  0 -1
              0 -1  1   1 -1  0   0 -1  0       0  1 -1  -1  1  0   0  1  0
              1  0  0   0  0  1   0  1  0      -1  0  0   0  0 -1   0 -1  0
              0  1 -1   0  0 -1   1  0 -1       0 -1  1   0  0  1  -1  0  1
             -1  0  1  -1  1  0  -1  0  0       1  0 -1   1 -1  0   1  0  0
              0 -1  0   1 -1  0   0 -1  1       0  1  0  -1  1  0   0  1 -1
              1  0 -1   0  0 -1   0  1 -1      -1  0  1   0  0  1   0 -1  1
              0  1  0   0  0  1   1  0  0       0 -1  0   0  0 -1  -1  0  0
              1  0 -1   0  1 -1   0  0 -1      -1  0  1   0 -1  1   0  0  1
              0 -1  0   0 -1  1   1 -1  0       0  1  0   0  1 -1  -1  1  0
             -1  0  1  -1  0  0  -1  1  0       1  0 -1   1  0  0   1 -1  0
              0  1  0   1  0  0   0  0  1       0 -1  0  -1  0  0   0  0 -1
              0  0 -1   0  1 -1   1  0 -1       0  0  1   0 -1  1  -1  0  1
              1 -1  0   0 -1  1   0 -1  0      -1  1  0   0  1 -1   0  1  0
              0  0  1   1  0  0   0  1  0       0  0 -1  -1  0  0   0 -1  0
             -1  1  0  -1  0  0  -1  0  1       1 -1  0   1  0  0   1  0 -1
              0  0  1   0  1  0   1  0  0       0  0 -1   0 -1  0  -1  0  0
              1 -1  0   0 -1  0   0 -1  1      -1  1  0   0  1  0   0  1 -1
              0  0 -1   1  0 -1   0  1 -1       0  0  1  -1  0  1   0 -1  1
             -1  1  0  -1  0  1  -1  0  0       1 -1  0   1  0 -1   1  0  0
    toldfe    1.00000000E-08 Hartree
    tsmear    5.00000000E-02 Hartree
     typat    1
       wtk      0.01563    0.12500    0.06250    0.09375    0.37500    0.18750
                0.04688    0.09375
     znucl     13.00000

================================================================================

 chkinp: Checking input parameters for consistency.

================================================================================
== DATASET  1 ==================================================================

 SCREENING: Calculation of the susceptibility and dielectric matrices

 Based on a program developped by R.W. Godby, V. Olevano, G. Onida, and L. Reining.
 Incorporated in ABINIT by V. Olevano, G.-M. Rignanese, and M. Torrent.

 Real(R)+Recip(G) space primitive vectors, cartesian coordinates (Bohr,Bohr^-1):
 R(1)=  0.0000000  3.8260000  3.8260000  G(1)= -0.1306848  0.1306848  0.1306848
 R(2)=  3.8260000  0.0000000  3.8260000  G(2)=  0.1306848 -0.1306848  0.1306848
 R(3)=  3.8260000  3.8260000  0.0000000  G(3)=  0.1306848  0.1306848 -0.1306848
 Unit cell volume ucvol=  1.1201209E+02 bohr^3
 Angles (23,13,12)=  6.00000000E+01  6.00000000E+01  6.00000000E+01 degrees

--- Pseudopotential description ------------------------------------------------
- pspini: atom type   1  psp file is /home/gonze/ABINIT/ABINITv5.6.3/test_gcc43/5.6.3-private/tests/Psps_for_tests/13al.981214.fhi
- pspatm: opening atomic psp file    /home/gonze/ABINIT/ABINITv5.6.3/test_gcc43/5.6.3-private/tests/Psps_for_tests/13al.981214.fhi
 Aluminum, fhi98PP : Hamann-type, LDA CA PerdewWang, l=2 local
  13.00000   3.00000    981214                znucl, zion, pspdat
    6    7    2    2       493   0.00000      pspcod,pspxc,lmax,lloc,mmax,r2well
  No XC core correction.
  1.024700          amesh (Hamman grid)
 pspatm: epsatm=    1.36305739
         --- l  ekb(1:nproj) -->
             0    1.768744
             1    0.900554
 pspatm: atomic psp has been read  and splines computed

   4.08917216E+00                                ecore*ucvol(ha*bohr**3)
--------------------------------------------------------------------------------


 k       eigenvalues [eV]
  1         -3.76  19.92  19.92  19.92  21.00  21.00  21.00  23.88  26.71  26.71
            29.15  31.73  31.73  31.73  38.00  60.59  60.59  60.59  63.51  63.51
            63.77  63.77  63.77  67.11  67.28  67.28  67.28  85.89  85.89  88.52

  2         -2.08  10.72  18.06  18.06  21.49  21.89  21.89  25.91  26.04  26.04
            31.63  37.67  39.40  39.40  44.61  47.79  47.79  51.58  63.24  63.24
            64.85  65.15  67.48  67.48  70.14  70.55  70.55  77.41  79.47  79.47

  3          2.78   2.92  18.41  18.41  18.77  18.77  22.18  22.53  32.20  32.20
            37.69  37.69  38.17  43.26  50.07  51.81  51.81  53.80  54.39  54.39
            58.45  59.03  65.67  65.67  67.47  68.68  71.46  71.46  73.76  73.76

  4         -1.52  14.71  14.71  14.83  15.49  18.03  28.77  28.93  28.93  33.47
            33.82  34.93  34.93  37.89  48.21  48.33  48.33  50.33  53.54  62.09
            63.95  66.65  66.65  68.09  68.17  68.17  69.76  80.67  80.72  80.72

  5          2.30   6.56  10.92  14.24  15.94  23.16  25.83  28.59  31.85  32.72
            38.44  39.65  41.91  44.66  45.38  48.18  50.49  51.18  53.26  55.40
            58.00  58.87  61.97  63.24  65.78  66.38  68.49  69.54  70.87  76.43

  6          0.68   8.56  10.00  16.64  18.62  24.28  24.64  25.80  28.18  32.64
            34.98  37.39  43.03  43.59  48.28  48.73  52.32  52.75  53.42  55.60
            58.41  60.23  61.72  63.08  65.18  69.51  70.14  70.23  77.94  78.27

  7          4.42   5.70  12.62  12.80  12.80  16.13  32.83  34.41  34.41  39.71
            39.79  39.79  40.39  42.30  47.98  47.98  48.33  48.33  48.84  49.36
            49.48  49.78  65.66  69.57  72.12  72.12  73.85  74.87  75.16  75.39

  8          6.49   6.49   7.54   8.26  23.04  23.04  23.32  25.45  34.65  39.48
            41.10  41.10  42.22  42.53  42.53  44.38  52.85  52.85  56.17  57.67
            59.27  59.57  59.83  60.28  60.38  60.38  62.85  62.85  75.52  76.87


 test on the normalization of the wavefunctions
 min sum_G |a(n,k,G)| =  0.300773
 max sum_G |a(n,k,G)| =  0.999881
 test on the orthogonalization of the wavefunctions
 min sum_G a(n,k,G)* a(n",k,G) =  0.000000
 max sum_G a(n,k,G)* a(n",k,G) =  0.453873

 number of q-points found        8
 find q-points q = k - k1 and translate in first BZ
 q-points [reduced coordinates]
    0.000010    0.000020    0.000030
    0.250000    0.000000    0.000000
   -0.500000    0.000000    0.000000
    0.250000    0.250000    0.000000
    0.500000    0.250000    0.000000
   -0.250000    0.250000    0.000000
   -0.500000   -0.500000    0.000000
   -0.250000    0.500000    0.250000

 setmesh: FFT mesh size selected  =   9x  9x  9
          total number of points  =      729

 total number of electrons per unit cell =    2.9970
 average of density, n =  0.026756
 r_s =    2.0741
 omega_plasma =   15.7786 [eV]


 calculating chi0 at frequencies [eV] :
  1    0.000000E+00    0.000000E+00
  2    3.023487E+00    0.000000E+00
  3    6.046974E+00    0.000000E+00
  4    9.070462E+00    0.000000E+00
  5    1.209395E+01    0.000000E+00
  6    1.511744E+01    0.000000E+00
  7    1.814092E+01    0.000000E+00
  8    2.116441E+01    0.000000E+00
  9    2.418790E+01    0.000000E+00
 10    2.721138E+01    0.000000E+00
 11    0.000000E+00    3.897850E+00
 12    0.000000E+00    1.068440E+01
 13    0.000000E+00    2.250047E+01
 14    0.000000E+00    4.307345E+01


--------------------------------------------------------------------------------
  q-point number  1        q = ( 0.000010, 0.000020, 0.000030) [r.l.u.]
--------------------------------------------------------------------------------
  chi0(G,G') at the    1 th omega   0.0000   0.0000 [eV]
       1       2       3       4       5       6       7       8       9
    1  -0.000  -0.000   0.000   0.000  -0.000  -0.000   0.000   0.000  -0.000
        0.000  -0.000  -0.000  -0.000  -0.000  -0.000  -0.000  -0.000   0.000

    2  -0.000  -8.006   0.192   0.777   0.398   0.771   0.401   0.788   0.406
        0.000   0.000  -0.000   0.000   0.000  -0.000  -0.000  -0.000   0.000

  chi0(G,G') at the    2 th omega   3.0235   0.0000 [eV]
       1       2       3       4       5       6       7       8       9
    1   0.000  -0.000   0.000  -0.000   0.000  -0.000   0.000  -0.000   0.000
       -0.000  -0.000   0.000   0.000  -0.000  -0.000   0.000   0.000  -0.000

    2  -0.000  -8.898   0.214   0.775   0.546   0.776   0.546   0.763   0.547
       -0.000  -0.353   0.030   0.074   0.011   0.074   0.011   0.074   0.011

  chi0(G,G') at the    3 th omega   6.0470   0.0000 [eV]
       1       2       3       4       5       6       7       8       9
    1   0.000  -0.000   0.000   0.000  -0.000  -0.000   0.000   0.000  -0.000
       -0.000  -0.000   0.000   0.000  -0.000  -0.000   0.000   0.000  -0.000

    2  -0.000  -7.163   0.262   0.689   0.316   0.689   0.317   0.669   0.312
       -0.000  -0.326   0.030   0.059   0.015   0.058   0.015   0.057   0.015

  chi0(G,G') at the    4 th omega   9.0705   0.0000 [eV]
       1       2       3       4       5       6       7       8       9
    1   0.000  -0.000   0.000   0.000  -0.000  -0.000   0.000   0.000  -0.000
       -0.000  -0.000   0.000   0.000  -0.000  -0.000   0.000   0.000  -0.000

    2  -0.000  -8.339   1.776   1.089  -1.103   1.088  -1.103   1.089  -1.098
       -0.000  -2.061  -0.041   0.378  -0.116   0.378  -0.116   0.377  -0.116

  chi0(G,G') at the    5 th omega  12.0939   0.0000 [eV]
       1       2       3       4       5       6       7       8       9
    1   0.000   0.000  -0.000  -0.000   0.000   0.000  -0.000  -0.000   0.000
       -0.000  -0.000   0.000   0.000  -0.000  -0.000   0.000   0.000  -0.000

    2   0.000   4.206   1.407  -3.739   0.137  -3.740   0.137  -3.736   0.132
       -0.000  -8.434  -0.840   2.589   0.282   2.589   0.282   2.588   0.283

  chi0(G,G') at the    6 th omega  15.1174   0.0000 [eV]
       1       2       3       4       5       6       7       8       9
    1   0.000   0.000  -0.000  -0.000   0.000   0.000  -0.000  -0.000   0.000
       -0.000  -0.000   0.000   0.000  -0.000  -0.000   0.000   0.000  -0.000

    2   0.000  -7.344  -0.082   0.712   0.192   0.708   0.200   0.778   0.212
       -0.000  -2.498   0.954   0.393  -0.188   0.395  -0.196   0.398  -0.192

  chi0(G,G') at the    7 th omega  18.1409   0.0000 [eV]
       1       2       3       4       5       6       7       8       9
    1   0.000  -0.000   0.000   0.000  -0.000  -0.000   0.000   0.000  -0.000
       -0.000  -0.000   0.000   0.000  -0.000  -0.000   0.000   0.000  -0.000

    2  -0.000  -4.423   0.915   0.124  -0.370   0.119  -0.362   0.115  -0.388
       -0.000  -1.019   0.268   0.118  -0.161   0.121  -0.164   0.128  -0.174

  chi0(G,G') at the    8 th omega  21.1644   0.0000 [eV]
       1       2       3       4       5       6       7       8       9
    1   0.000   0.000  -0.000  -0.000   0.000   0.000  -0.000  -0.000   0.000
       -0.000  -0.000   0.000   0.000  -0.000  -0.000   0.000   0.000  -0.000

    2   0.000   5.208  -1.280  -2.088   0.992  -2.088   0.990  -2.101   1.000
       -0.000  -2.870   0.771   0.306  -0.145   0.306  -0.145   0.306  -0.145

  chi0(G,G') at the    9 th omega  24.1879   0.0000 [eV]
       1       2       3       4       5       6       7       8       9
    1   0.000   0.000  -0.000  -0.000   0.000   0.000  -0.000  -0.000   0.000
       -0.000  -0.000   0.000   0.000  -0.000  -0.000   0.000   0.000  -0.000

    2   0.000   6.223  -2.934  -2.123   0.113  -2.123   0.112  -2.140   0.114
       -0.000  -4.272   2.741   0.586  -0.208   0.586  -0.208   0.586  -0.208

  chi0(G,G') at the   10 th omega  27.2114   0.0000 [eV]
       1       2       3       4       5       6       7       8       9
    1   0.000   0.000  -0.000  -0.000   0.000   0.000  -0.000  -0.000   0.000
       -0.000   0.000  -0.000  -0.000   0.000   0.000  -0.000  -0.000   0.000

    2   0.000  -4.512  -3.644  -0.686  -1.030  -0.669  -1.036  -0.711  -1.039
        0.000  -2.280  -0.684  -0.307   0.014  -0.312   0.019  -0.325   0.036

  chi0(G,G') at the   11 th omega   0.0000   3.8978 [eV]
       1       2       3       4       5       6       7       8       9
    1  -0.000  -0.000   0.000   0.000  -0.000  -0.000   0.000   0.000  -0.000
       -0.000  -0.000  -0.000   0.000   0.000  -0.000  -0.000  -0.000  -0.000

    2  -0.000  -6.460   0.119   0.462   0.334   0.461   0.335   0.460   0.333
       -0.000  -0.002   0.000   0.002  -0.000   0.002   0.000  -0.000  -0.000

  chi0(G,G') at the   12 th omega   0.0000  10.6844 [eV]
       1       2       3       4       5       6       7       8       9
    1  -0.000  -0.000   0.000   0.000  -0.000  -0.000   0.000   0.000  -0.000
       -0.000  -0.000  -0.000   0.000   0.000  -0.000  -0.000  -0.000  -0.000

    2  -0.000  -4.526   0.097   0.227   0.184   0.227   0.185   0.224   0.183
       -0.000  -0.004  -0.000   0.002  -0.000   0.002   0.000   0.000   0.000

  chi0(G,G') at the   13 th omega   0.0000  22.5005 [eV]
       1       2       3       4       5       6       7       8       9
    1  -0.000  -0.000   0.000   0.000  -0.000  -0.000   0.000   0.000  -0.000
        0.000  -0.000  -0.000   0.000   0.000  -0.000  -0.000  -0.000  -0.000

    2  -0.000  -2.677   0.036   0.063   0.085   0.063   0.085   0.061   0.084
       -0.000  -0.006   0.000   0.002  -0.000   0.002  -0.000   0.001   0.000

  chi0(G,G') at the   14 th omega   0.0000  43.0734 [eV]
       1       2       3       4       5       6       7       8       9
    1  -0.000  -0.000   0.000   0.000  -0.000  -0.000   0.000   0.000  -0.000
       -0.000  -0.000  -0.000   0.000   0.000  -0.000  -0.000   0.000   0.000

    2  -0.000  -1.286  -0.003  -0.001   0.034  -0.001   0.034  -0.002   0.034
       -0.000  -0.008  -0.000   0.001  -0.000   0.001   0.000   0.000   0.000

  dielectric constant =  69.7386
  dielectric constant without local fields =  71.9239

  Average fulfillment of the sum rule on Im[epsilon] for q-point    1 :     81.11  [%]
  Heads and wings of the symmetrical epsilon^-1(G,G')

   Upper and lower wings at the    1 th omega   0.0000   0.0000 [eV]
       1       2       3       4       5       6       7       8       9
      0.014  -0.001   0.001   0.002  -0.002  -0.002   0.002   0.001  -0.001
      0.000  -0.000  -0.000  -0.000  -0.000  -0.000  -0.000  -0.000  -0.000
       1       2       3       4       5       6       7       8       9
      0.014  -0.001   0.001   0.002  -0.002  -0.002   0.002   0.001  -0.001
      0.000   0.000   0.000   0.000   0.000   0.000   0.000   0.000  -0.000


   Upper and lower wings at the    2 th omega   3.0235   0.0000 [eV]
       1       2       3       4       5       6       7       8       9
     -0.072   0.000  -0.000  -0.000   0.000   0.000  -0.000   0.000  -0.000
     -0.010   0.000  -0.000  -0.001   0.001   0.001  -0.001  -0.000   0.000
       1       2       3       4       5       6       7       8       9
     -0.072   0.000  -0.000  -0.000   0.000   0.000  -0.000   0.000  -0.000
     -0.010   0.000  -0.000  -0.001   0.001   0.001  -0.001  -0.000   0.000


   Upper and lower wings at the    3 th omega   6.0470   0.0000 [eV]
       1       2       3       4       5       6       7       8       9
     -0.490   0.000  -0.000  -0.001   0.001   0.001  -0.001  -0.000   0.000
     -0.067   0.001  -0.001  -0.002   0.002   0.002  -0.002  -0.001   0.001
       1       2       3       4       5       6       7       8       9
     -0.490   0.000  -0.000  -0.001   0.001   0.001  -0.001  -0.000   0.000
     -0.067   0.001  -0.001  -0.002   0.002   0.002  -0.002  -0.001   0.001


   Upper and lower wings at the    4 th omega   9.0705   0.0000 [eV]
       1       2       3       4       5       6       7       8       9
     -1.780   0.011  -0.011  -0.032   0.032   0.033  -0.032  -0.011   0.011
     -0.952   0.010  -0.010  -0.030   0.030   0.030  -0.030  -0.010   0.010
       1       2       3       4       5       6       7       8       9
     -1.780   0.011  -0.011  -0.032   0.032   0.033  -0.032  -0.011   0.011
     -0.952   0.010  -0.010  -0.030   0.030   0.030  -0.030  -0.010   0.010


   Upper and lower wings at the    5 th omega  12.0939   0.0000 [eV]
       1       2       3       4       5       6       7       8       9
      4.153  -0.020   0.020   0.059  -0.059  -0.059   0.060   0.020  -0.020
     -1.805  -0.094   0.094   0.279  -0.279  -0.280   0.280   0.094  -0.094
       1       2       3       4       5       6       7       8       9
      4.153  -0.020   0.020   0.059  -0.059  -0.059   0.060   0.020  -0.020
     -1.805  -0.094   0.094   0.279  -0.279  -0.280   0.280   0.094  -0.094


   Upper and lower wings at the    6 th omega  15.1174   0.0000 [eV]
       1       2       3       4       5       6       7       8       9
      1.890   0.000  -0.000  -0.002   0.002   0.002  -0.002   0.000  -0.000
     -0.435  -0.019   0.019   0.058  -0.058  -0.058   0.058   0.019  -0.019
       1       2       3       4       5       6       7       8       9
      1.890   0.000  -0.000  -0.002   0.002   0.002  -0.002   0.000  -0.000
     -0.435  -0.019   0.019   0.058  -0.058  -0.058   0.058   0.019  -0.019


   Upper and lower wings at the    7 th omega  18.1409   0.0000 [eV]
       1       2       3       4       5       6       7       8       9
      1.579  -0.009   0.009   0.027  -0.026  -0.027   0.026   0.009  -0.009
     -0.203  -0.000   0.001   0.002  -0.002  -0.002   0.002   0.000  -0.000
       1       2       3       4       5       6       7       8       9
      1.579  -0.009   0.009   0.027  -0.026  -0.027   0.026   0.009  -0.009
     -0.203  -0.000   0.001   0.002  -0.002  -0.002   0.002   0.000  -0.000


   Upper and lower wings at the    8 th omega  21.1644   0.0000 [eV]
       1       2       3       4       5       6       7       8       9
      1.380   0.014  -0.014  -0.042   0.042   0.043  -0.042  -0.014   0.014
     -0.056  -0.017   0.016   0.050  -0.049  -0.050   0.049   0.017  -0.017
       1       2       3       4       5       6       7       8       9
      1.380   0.014  -0.014  -0.042   0.042   0.043  -0.042  -0.014   0.014
     -0.056  -0.017   0.016   0.050  -0.049  -0.050   0.049   0.017  -0.017


   Upper and lower wings at the    9 th omega  24.1879   0.0000 [eV]
       1       2       3       4       5       6       7       8       9
      1.259   0.001  -0.001  -0.005   0.005   0.005  -0.005  -0.001   0.001
     -0.062  -0.031   0.031   0.092  -0.092  -0.092   0.092   0.031  -0.031
       1       2       3       4       5       6       7       8       9
      1.259   0.001  -0.001  -0.005   0.005   0.005  -0.005  -0.001   0.001
     -0.062  -0.031   0.031   0.092  -0.092  -0.092   0.092   0.031  -0.031


   Upper and lower wings at the   10 th omega  27.2114   0.0000 [eV]
       1       2       3       4       5       6       7       8       9
      1.184   0.003  -0.003  -0.008   0.008   0.008  -0.008  -0.003   0.003
     -0.019  -0.000   0.000   0.000  -0.000  -0.000   0.000   0.000  -0.000
       1       2       3       4       5       6       7       8       9
      1.184   0.003  -0.003  -0.008   0.008   0.008  -0.008  -0.003   0.003
     -0.019  -0.000   0.000   0.000  -0.000  -0.000   0.000   0.000  -0.000


   Upper and lower wings at the   11 th omega   0.0000   3.8978 [eV]
       1       2       3       4       5       6       7       8       9
      0.136  -0.002   0.002   0.005  -0.005  -0.005   0.005   0.002  -0.002
     -0.000   0.000   0.000   0.000   0.000   0.000   0.000  -0.000  -0.000
       1       2       3       4       5       6       7       8       9
      0.136  -0.002   0.002   0.005  -0.005  -0.005   0.005   0.002  -0.002
     -0.000   0.000   0.000   0.000   0.000   0.000   0.000  -0.000  -0.000


   Upper and lower wings at the   12 th omega   0.0000  10.6844 [eV]
       1       2       3       4       5       6       7       8       9
      0.508  -0.002   0.002   0.007  -0.007  -0.007   0.007   0.002  -0.002
     -0.000  -0.000  -0.000  -0.000  -0.000  -0.000  -0.000  -0.000  -0.000
       1       2       3       4       5       6       7       8       9
      0.508  -0.002   0.002   0.007  -0.007  -0.007   0.007   0.002  -0.002
     -0.000  -0.000  -0.000  -0.000  -0.000  -0.000  -0.000  -0.000  -0.000


   Upper and lower wings at the   13 th omega   0.0000  22.5005 [eV]
       1       2       3       4       5       6       7       8       9
      0.815  -0.002   0.002   0.005  -0.005  -0.005   0.005   0.002  -0.002
      0.000  -0.000  -0.000   0.000   0.000  -0.000  -0.000  -0.000  -0.000
       1       2       3       4       5       6       7       8       9
      0.815  -0.002   0.002   0.005  -0.005  -0.005   0.005   0.002  -0.002
      0.000  -0.000  -0.000   0.000   0.000  -0.000  -0.000  -0.000  -0.000


   Upper and lower wings at the   14 th omega   0.0000  43.0734 [eV]
       1       2       3       4       5       6       7       8       9
      0.940  -0.001   0.001   0.002  -0.002  -0.002   0.002   0.001  -0.001
     -0.000  -0.000  -0.000   0.000   0.000  -0.000  -0.000   0.000   0.000
       1       2       3       4       5       6       7       8       9
      0.940  -0.001   0.001   0.002  -0.002  -0.002   0.002   0.001  -0.001
     -0.000  -0.000  -0.000   0.000   0.000  -0.000  -0.000   0.000   0.000




--------------------------------------------------------------------------------
  q-point number  2        q = ( 0.250000, 0.000000, 0.000000) [r.l.u.]
--------------------------------------------------------------------------------
  chi0(G,G') at the    1 th omega   0.0000   0.0000 [eV]
       1       2       3       4       5       6       7       8       9
    1 -11.187  -0.114  -0.187  -0.160  -0.129  -0.157  -0.127  -0.144  -0.115
        0.000   0.000  -0.000   0.000  -0.000   0.000  -0.000  -0.000   0.000

    2  -0.114  -5.718   0.104   0.544   0.490   0.541   0.491   0.546   0.493
       -0.000   0.000  -0.000   0.000   0.000   0.000  -0.000  -0.000   0.000

  chi0(G,G') at the    2 th omega   3.0235   0.0000 [eV]
       1       2       3       4       5       6       7       8       9
    1 -11.476  -0.163  -0.104   0.478   0.380   0.480   0.387   0.503   0.428
       -2.168  -0.014   0.090   0.019  -0.011   0.019  -0.010   0.020  -0.008

    2  -0.163  -6.119   0.306   0.692  -0.051   0.688  -0.050   0.693  -0.049
       -0.014  -0.425   0.011   0.087  -0.023   0.087  -0.023   0.087  -0.021

  chi0(G,G') at the    3 th omega   6.0470   0.0000 [eV]
       1       2       3       4       5       6       7       8       9
    1   0.660   1.465   1.020  -0.260  -0.317  -0.243  -0.298  -0.263  -0.298
      -18.179  -1.193  -3.000  -0.522  -0.437  -0.534  -0.467  -0.534  -0.304

    2   1.465  -4.966  -1.126   0.210   0.921   0.216   0.914   0.181   0.904
       -1.193  -1.694   1.754   0.667  -0.590   0.648  -0.579   0.689  -0.567

  chi0(G,G') at the    4 th omega   9.0705   0.0000 [eV]
       1       2       3       4       5       6       7       8       9
    1   4.207  -0.053  -0.322  -0.086   0.192  -0.083   0.192  -0.092   0.184
       -1.180   0.074  -0.049   0.031  -0.025   0.034  -0.025   0.030  -0.025

    2  -0.053  -5.308   2.722  -0.268   0.922  -0.262   0.921  -0.264   0.915
        0.074  -0.720   0.391  -0.024   0.163  -0.025   0.163  -0.023   0.161

  chi0(G,G') at the    5 th omega  12.0939   0.0000 [eV]
       1       2       3       4       5       6       7       8       9
    1   2.896  -0.088   0.167   0.108   0.014   0.106   0.014   0.109   0.009
       -0.250   0.157  -0.192  -0.104   0.017  -0.104   0.017  -0.104   0.015

    2  -0.088 -10.089  -1.359   1.631   0.864   1.632   0.864   1.620   0.868
        0.157  -5.910   1.661   1.538   1.106   1.537   1.105   1.526   1.123

  chi0(G,G') at the    6 th omega  15.1174   0.0000 [eV]
       1       2       3       4       5       6       7       8       9
    1   1.378   0.090  -0.133   0.098   0.092   0.098   0.092   0.102   0.091
       -0.073   0.045  -0.104   0.001   0.003   0.000   0.003   0.000   0.003

    2   0.090  -5.901   1.696  -0.237  -0.407  -0.236  -0.406  -0.244  -0.401
        0.045  -0.590   0.724  -0.053   0.067  -0.053   0.067  -0.053   0.066

  chi0(G,G') at the    7 th omega  18.1409   0.0000 [eV]
       1       2       3       4       5       6       7       8       9
    1   0.920  -0.130   0.136   0.055   0.029   0.055   0.029   0.055   0.025
       -0.061   0.025   0.024  -0.020  -0.004  -0.020  -0.004  -0.020  -0.004

    2  -0.130  -1.930   1.303  -0.864   0.788  -0.863   0.790  -0.845   0.792
        0.025  -0.975   0.182   0.168  -0.008   0.168  -0.009   0.167  -0.009

  chi0(G,G') at the    8 th omega  21.1644   0.0000 [eV]
       1       2       3       4       5       6       7       8       9
    1   0.637   0.018   0.061  -0.060  -0.074  -0.060  -0.075  -0.059  -0.072
       -0.036  -0.036  -0.061   0.063   0.071   0.063   0.071   0.062   0.070

    2   0.018  -3.587  -2.192   1.377  -0.214   1.375  -0.216   1.306  -0.251
       -0.036  -1.313   0.455  -0.028   0.393  -0.026   0.392   0.006   0.367

  chi0(G,G') at the    9 th omega  24.1879   0.0000 [eV]
       1       2       3       4       5       6       7       8       9
    1   0.451   0.037   0.173   0.029   0.098   0.028   0.099   0.033   0.099
       -0.025   0.076   0.044   0.002   0.040   0.001   0.041   0.002   0.043

    2   0.037  -1.882  -3.269   0.094  -0.878   0.100  -0.884   0.045  -0.862
        0.077  -1.542  -0.059   0.270  -0.107   0.275  -0.110   0.270  -0.107

  chi0(G,G') at the   10 th omega  27.2114   0.0000 [eV]
       1       2       3       4       5       6       7       8       9
    1   0.359   0.048  -0.009   0.054  -0.020   0.054  -0.020   0.052  -0.019
       -0.033   0.010  -0.063   0.104   0.006   0.104   0.006   0.104   0.006

    2   0.048  -6.065   0.197   1.138  -0.070   1.139  -0.070   1.061  -0.038
        0.010  -1.573   0.046   0.435  -0.034   0.435  -0.034   0.428  -0.029

  chi0(G,G') at the   11 th omega   0.0000   3.8978 [eV]
       1       2       3       4       5       6       7       8       9
    1  -5.015   0.053  -0.178  -0.096  -0.044  -0.094  -0.043  -0.094  -0.040
       -0.000   0.001  -0.001   0.001  -0.001   0.001  -0.001   0.001   0.001

    2   0.053  -4.784   0.111   0.397   0.313   0.395   0.314   0.396   0.314
       -0.001  -0.001   0.002   0.001   0.000   0.001   0.000  -0.000   0.000

  chi0(G,G') at the   12 th omega   0.0000  10.6844 [eV]
       1       2       3       4       5       6       7       8       9
    1  -1.614   0.056  -0.100  -0.036   0.005  -0.035   0.006  -0.035   0.007
        0.000   0.001  -0.001   0.000  -0.001   0.000  -0.001   0.000   0.001

    2   0.056  -3.640   0.089   0.217   0.209   0.216   0.210   0.214   0.209
       -0.001  -0.002   0.001   0.001   0.000   0.001   0.000   0.001   0.001

  chi0(G,G') at the   13 th omega   0.0000  22.5005 [eV]
       1       2       3       4       5       6       7       8       9
    1  -0.465   0.032  -0.036  -0.010   0.011  -0.009   0.011  -0.009   0.012
        0.000   0.001  -0.000   0.000  -0.001   0.000  -0.001   0.000   0.001

    2   0.032  -2.406   0.032   0.078   0.117   0.077   0.117   0.075   0.117
       -0.001  -0.003   0.001   0.001   0.000   0.001   0.000   0.001   0.001

  chi0(G,G') at the   14 th omega   0.0000  43.0734 [eV]
       1       2       3       4       5       6       7       8       9
    1  -0.137   0.014  -0.010  -0.002   0.007  -0.002   0.007  -0.002   0.007
        0.000   0.001  -0.000  -0.000  -0.000  -0.000  -0.000   0.000   0.000

    2   0.014  -1.303  -0.002   0.013   0.057   0.013   0.057   0.012   0.057
       -0.001  -0.004   0.000   0.001   0.000   0.001   0.000   0.000   0.001

  Average fulfillment of the sum rule on Im[epsilon] for q-point    2 :     93.67  [%]


--------------------------------------------------------------------------------
  q-point number  3        q = (-0.500000, 0.000000, 0.000000) [r.l.u.]
--------------------------------------------------------------------------------
  chi0(G,G') at the    1 th omega   0.0000   0.0000 [eV]
       1       2       3       4       5       6       7       8       9
    1 -10.186  -0.175  -0.101  -0.114  -0.201  -0.113  -0.199  -0.104  -0.187
        0.000   0.000   0.000   0.000  -0.000   0.000  -0.000  -0.000  -0.000

    2  -0.175 -10.186   0.111   0.595   0.315   0.591   0.316   0.596   0.316
       -0.000  -0.000   0.000   0.000  -0.000  -0.000  -0.000   0.000   0.000

  chi0(G,G') at the    2 th omega   3.0235   0.0000 [eV]
       1       2       3       4       5       6       7       8       9
    1 -10.684  -0.412  -0.032  -0.232  -0.540  -0.230  -0.537  -0.222  -0.529
       -1.584   0.582  -0.058  -0.029   0.137  -0.029   0.137  -0.032   0.142

    2  -0.412 -10.684  -0.047   1.207   0.485   1.201   0.486   1.200   0.483
        0.582  -1.583   0.039   0.152  -0.207   0.152  -0.207   0.161  -0.209

  chi0(G,G') at the    3 th omega   6.0470   0.0000 [eV]
       1       2       3       4       5       6       7       8       9
    1  -5.263  -0.227   0.119  -0.151   0.086  -0.171   0.086  -0.155   0.086
       -3.216   0.104  -0.145  -0.114  -0.018  -0.104  -0.017  -0.112  -0.019

    2  -0.227  -5.263  -0.387   0.633  -0.922   0.626  -0.922   0.636  -0.923
        0.104  -3.216  -0.735   0.269   0.827   0.266   0.827   0.268   0.828

  chi0(G,G') at the    4 th omega   9.0705   0.0000 [eV]
       1       2       3       4       5       6       7       8       9
    1  -5.424  -1.707  -0.064   0.039  -0.034   0.038  -0.034   0.039  -0.022
       -6.178  -2.656  -0.478   0.399   0.762   0.400   0.758   0.460   0.759

    2  -1.707  -5.420   0.534  -0.924   1.206  -0.919   1.206  -0.908   1.196
       -2.656  -6.178  -0.243   0.399   1.073   0.400   1.070   0.465   1.076

  chi0(G,G') at the    5 th omega  12.0939   0.0000 [eV]
       1       2       3       4       5       6       7       8       9
    1   7.296   0.621  -0.145   0.037   0.165   0.033   0.164   0.085   0.178
      -14.339  -1.532  -0.279  -0.651  -0.543  -0.657  -0.549  -0.548  -0.500

    2   0.621   7.294   0.773  -4.436   1.043  -4.436   1.043  -4.435   1.045
       -1.532 -14.339   0.081   0.807   1.173   0.803   1.170   0.795   1.176

  chi0(G,G') at the    6 th omega  15.1174   0.0000 [eV]
       1       2       3       4       5       6       7       8       9
    1   3.494   0.030   0.281   0.246  -0.124   0.244  -0.121   0.235  -0.138
       -2.042  -0.211   0.001   0.002  -0.261   0.002  -0.261   0.003  -0.261

    2   0.030   3.493  -0.737   0.244  -1.039   0.244  -1.038   0.239  -1.048
       -0.211  -2.042   0.447   0.116   0.079   0.115   0.079   0.115   0.078

  chi0(G,G') at the    7 th omega  18.1409   0.0000 [eV]
       1       2       3       4       5       6       7       8       9
    1   4.567  -1.602   1.847   0.489  -0.393   0.491  -0.390   0.491  -0.405
       -8.636  -1.447   0.310  -1.436   0.139  -1.437   0.134  -1.383   0.056

    2  -1.602   4.611   2.299  -1.305  -0.605  -1.305  -0.607  -1.311  -0.599
       -1.447  -8.602   6.198  -0.233  -2.700  -0.239  -2.685  -0.233  -2.689

  chi0(G,G') at the    8 th omega  21.1644   0.0000 [eV]
       1       2       3       4       5       6       7       8       9
    1   5.266   0.024  -0.075   0.007  -0.124   0.005  -0.116  -0.019  -0.116
       -1.043  -0.229   0.272  -0.229   0.346  -0.229   0.347  -0.231   0.347

    2   0.024   5.256  -1.379   0.188   0.034   0.188   0.032   0.185   0.021
       -0.229  -1.025   0.384  -0.537   0.352  -0.537   0.353  -0.537   0.351

  chi0(G,G') at the    9 th omega  24.1879   0.0000 [eV]
       1       2       3       4       5       6       7       8       9
    1   2.069   0.146  -0.091   0.145   0.085   0.145   0.082   0.154   0.082
       -0.171  -0.006   0.025   0.019   0.004   0.019   0.003   0.020   0.002

    2   0.146   2.067  -0.337  -0.610   0.244  -0.611   0.243  -0.614   0.248
       -0.006  -0.171   0.012  -0.058  -0.043  -0.058  -0.043  -0.058  -0.044

  chi0(G,G') at the   10 th omega  27.2114   0.0000 [eV]
       1       2       3       4       5       6       7       8       9
    1   2.158   0.058   0.116   0.130   0.027   0.128   0.030   0.120   0.032
       -0.142   0.003   0.030   0.078  -0.025   0.077  -0.024   0.076  -0.022

    2   0.058   2.159  -0.179   0.028   0.072   0.031   0.074   0.034   0.081
        0.003  -0.142  -0.010  -0.058   0.013  -0.058   0.013  -0.058   0.014

  chi0(G,G') at the   11 th omega   0.0000   3.8978 [eV]
       1       2       3       4       5       6       7       8       9
    1  -7.100  -0.206  -0.011  -0.076  -0.128  -0.076  -0.127  -0.071  -0.122
       -0.000  -0.000  -0.002   0.001  -0.000   0.001  -0.000  -0.000  -0.000

    2  -0.206  -7.100   0.097   0.381   0.131   0.378   0.132   0.382   0.129
        0.000   0.000  -0.000  -0.000   0.000  -0.000   0.000   0.001  -0.000

  chi0(G,G') at the   12 th omega   0.0000  10.6844 [eV]
       1       2       3       4       5       6       7       8       9
    1  -3.647  -0.144   0.042  -0.026  -0.062  -0.026  -0.061  -0.024  -0.059
       -0.000   0.000  -0.004   0.001  -0.001   0.001  -0.001  -0.001  -0.001

    2  -0.144  -3.647   0.065   0.136   0.011   0.135   0.012   0.137   0.010
       -0.000   0.000  -0.000   0.000   0.000   0.000   0.000   0.001  -0.000

  chi0(G,G') at the   13 th omega   0.0000  22.5005 [eV]
       1       2       3       4       5       6       7       8       9
    1  -1.460  -0.054   0.039   0.007  -0.017   0.007  -0.016   0.008  -0.015
       -0.000  -0.000  -0.003   0.001  -0.000   0.001  -0.000  -0.001  -0.000

    2  -0.054  -1.460   0.020   0.009  -0.018   0.009  -0.018   0.009  -0.019
        0.000   0.000  -0.000   0.000   0.000   0.000   0.000   0.001  -0.000

  chi0(G,G') at the   14 th omega   0.0000  43.0734 [eV]
       1       2       3       4       5       6       7       8       9
    1  -0.501  -0.015   0.022   0.012  -0.001   0.012  -0.000   0.012  -0.000
       -0.000  -0.000  -0.002   0.000  -0.000   0.000  -0.000  -0.000  -0.000

    2  -0.015  -0.501  -0.002  -0.015  -0.012  -0.016  -0.012  -0.015  -0.012
        0.000   0.000   0.000   0.000  -0.000   0.000  -0.000   0.000  -0.000

  Average fulfillment of the sum rule on Im[epsilon] for q-point    3 :     90.36  [%]


--------------------------------------------------------------------------------
  q-point number  4        q = ( 0.250000, 0.250000, 0.000000) [r.l.u.]
--------------------------------------------------------------------------------
  chi0(G,G') at the    1 th omega   0.0000   0.0000 [eV]
       1       2       3       4       5       6       7       8       9
    1 -10.006  -0.101  -0.155  -0.159  -0.103  -0.156  -0.100  -0.097  -0.152
        0.000   0.000  -0.000   0.000  -0.000   0.000  -0.000  -0.000   0.000

    2  -0.101  -6.177   0.122   0.589   0.433   0.585   0.434   0.467   0.447
       -0.000  -0.000  -0.000   0.000  -0.000   0.000   0.000  -0.000   0.000

  chi0(G,G') at the    2 th omega   3.0235   0.0000 [eV]
       1       2       3       4       5       6       7       8       9
    1  -7.347  -0.316   0.033   0.032  -0.321   0.036  -0.319  -0.313   0.040
       -1.216   0.010  -0.048  -0.047   0.008  -0.047   0.007   0.006  -0.048

    2  -0.316  -6.668  -0.054   0.909   0.176   0.903   0.175   0.598   1.014
        0.010  -0.319  -0.021   0.082  -0.026   0.082  -0.027   0.076   0.153

  chi0(G,G') at the    3 th omega   6.0470   0.0000 [eV]
       1       2       3       4       5       6       7       8       9
    1  -6.129  -0.139  -0.167  -0.183  -0.162  -0.145  -0.164  -0.243  -0.126
       -9.331  -0.102  -0.366  -0.361  -0.177  -0.329  -0.177  -0.215  -0.332

    2  -0.139  -6.288  -0.109   0.399   1.373   0.399   1.376  -0.158  -0.537
       -0.102  -1.331   0.254  -0.404   0.758  -0.407   0.759  -0.532   0.864

  chi0(G,G') at the    4 th omega   9.0705   0.0000 [eV]
       1       2       3       4       5       6       7       8       9
    1   3.725   0.422  -0.369  -0.406   0.422  -0.411   0.423   0.433  -0.376
       -5.642   0.754  -1.031  -1.067   0.746  -1.066   0.746   0.754  -1.030

    2   0.422  -5.492  -0.512   0.147   0.566   0.151   0.565   0.229   0.641
        0.754  -3.539   1.237   1.088   0.455   1.087   0.455   0.942  -1.824

  chi0(G,G') at the    5 th omega  12.0939   0.0000 [eV]
       1       2       3       4       5       6       7       8       9
    1   2.756  -0.022   0.069   0.050  -0.001   0.050  -0.001  -0.016   0.068
       -4.167  -0.032  -0.425  -0.495   0.011  -0.495   0.011  -0.032  -0.425

    2  -0.022  -3.167   2.052  -1.996   0.073  -1.995   0.073  -0.232  -0.372
       -0.032  -5.638   1.802   0.392   1.401   0.391   1.401  -0.195  -0.577

  chi0(G,G') at the    6 th omega  15.1174   0.0000 [eV]
       1       2       3       4       5       6       7       8       9
    1   2.371   0.093  -0.032  -0.027   0.098  -0.027   0.097   0.097  -0.032
       -0.294   0.021   0.069   0.069   0.021   0.069   0.021   0.021   0.069

    2   0.093  -5.292   0.136   1.223  -0.096   1.223  -0.097   0.960  -0.727
        0.021  -1.879  -0.015   0.474   0.121   0.474   0.121   0.735   0.019

  chi0(G,G') at the    7 th omega  18.1409   0.0000 [eV]
       1       2       3       4       5       6       7       8       9
    1   1.281  -0.046   0.189   0.192  -0.050   0.192  -0.051  -0.043   0.191
       -0.052  -0.049   0.068   0.069  -0.051   0.069  -0.052  -0.049   0.067

    2  -0.046  -2.495   0.957  -1.551   0.750  -1.551   0.781  -0.985   0.202
       -0.049  -4.942   1.191   3.278  -0.395   3.278  -0.393  -0.470   1.747

  chi0(G,G') at the    8 th omega  21.1644   0.0000 [eV]
       1       2       3       4       5       6       7       8       9
    1   0.882  -0.040  -0.060  -0.062  -0.040  -0.062  -0.040  -0.036  -0.059
       -0.030   0.013  -0.000   0.000   0.012   0.000   0.012   0.013   0.000

    2  -0.040  -1.336  -2.011  -0.244   0.483  -0.245   0.459   0.689   2.491
        0.013  -4.006  -0.381   0.207   0.136   0.208   0.154   1.862   0.471

  chi0(G,G') at the    9 th omega  24.1879   0.0000 [eV]
       1       2       3       4       5       6       7       8       9
    1   0.626   0.004   0.098   0.093   0.009   0.093   0.009   0.007   0.099
       -0.022   0.023  -0.023  -0.022   0.023  -0.022   0.023   0.023  -0.023

    2   0.004  -0.865  -0.551  -1.047   0.128  -1.046   0.126  -0.642  -0.453
        0.023  -1.095   0.245   0.283  -0.034   0.283  -0.035   0.065   0.035

  chi0(G,G') at the   10 th omega  27.2114   0.0000 [eV]
       1       2       3       4       5       6       7       8       9
    1   0.502   0.033   0.021   0.016   0.040   0.017   0.039   0.034   0.024
       -0.013   0.007  -0.007  -0.005   0.007  -0.005   0.007   0.007  -0.006

    2   0.033  -3.336   0.261  -1.052   0.313  -1.055   0.310   0.609  -0.412
        0.007  -2.376   1.759  -0.626   0.589  -0.624   0.587   0.728  -0.292

  chi0(G,G') at the   11 th omega   0.0000   3.8978 [eV]
       1       2       3       4       5       6       7       8       9
    1  -5.507  -0.017  -0.127  -0.131  -0.018  -0.128  -0.018  -0.017  -0.124
       -0.000   0.002  -0.001   0.001   0.000   0.001   0.000  -0.002  -0.001

    2  -0.017  -5.260   0.114   0.419   0.307   0.417   0.308   0.367   0.370
       -0.002  -0.001   0.002   0.001   0.000   0.001   0.000  -0.000   0.001

  chi0(G,G') at the   12 th omega   0.0000  10.6844 [eV]
       1       2       3       4       5       6       7       8       9
    1  -1.973   0.020  -0.060  -0.062   0.020  -0.061   0.020   0.020  -0.058
        0.000   0.002  -0.001   0.001  -0.000   0.000  -0.000  -0.002  -0.001

    2   0.020  -3.942   0.092   0.215   0.204   0.213   0.204   0.221   0.189
       -0.002  -0.002   0.001   0.001   0.000   0.001   0.000   0.000   0.001

  chi0(G,G') at the   13 th omega   0.0000  22.5005 [eV]
       1       2       3       4       5       6       7       8       9
    1  -0.602   0.020  -0.019  -0.021   0.020  -0.020   0.020   0.020  -0.019
        0.000   0.001  -0.000   0.000  -0.000   0.000  -0.000  -0.001  -0.000

    2   0.020  -2.550   0.034   0.064   0.113   0.064   0.113   0.095   0.092
       -0.001  -0.003   0.000   0.001   0.001   0.001   0.001   0.001   0.001

  chi0(G,G') at the   14 th omega   0.0000  43.0734 [eV]
       1       2       3       4       5       6       7       8       9
    1  -0.181   0.011  -0.005  -0.006   0.012  -0.005   0.012   0.011  -0.005
        0.000   0.001  -0.000   0.000  -0.000   0.000  -0.000  -0.000  -0.000

    2   0.011  -1.352  -0.003   0.003   0.054   0.003   0.054   0.026   0.039
       -0.001  -0.003   0.000   0.000   0.000   0.000   0.000   0.000   0.001

  Average fulfillment of the sum rule on Im[epsilon] for q-point    4 :     92.61  [%]


--------------------------------------------------------------------------------
  q-point number  5        q = ( 0.500000, 0.250000, 0.000000) [r.l.u.]
--------------------------------------------------------------------------------
  chi0(G,G') at the    1 th omega   0.0000   0.0000 [eV]
       1       2       3       4       5       6       7       8       9
    1 -10.629  -0.123  -0.189  -0.181  -0.127  -0.179  -0.126  -0.140  -0.168
        0.000   0.000  -0.000  -0.000  -0.000  -0.000  -0.000  -0.000   0.000

    2  -0.123  -3.512   0.104   0.426   0.274   0.422   0.274   0.343   0.385
       -0.000   0.000  -0.000   0.000  -0.000  -0.000   0.000  -0.000   0.000

  chi0(G,G') at the    2 th omega   3.0235   0.0000 [eV]
       1       2       3       4       5       6       7       8       9
    1 -11.208  -0.272  -0.457   0.448   0.141   0.450   0.147  -0.254   0.437
       -1.394  -0.093  -0.104   0.168   0.153   0.168   0.153  -0.088  -0.013

    2  -0.272  -3.530   0.020   0.570   0.352   0.570   0.353   0.288   0.408
       -0.093  -0.092  -0.003   0.083   0.044   0.083   0.045  -0.015   0.059

  chi0(G,G') at the    3 th omega   6.0470   0.0000 [eV]
       1       2       3       4       5       6       7       8       9
    1  -5.989  -0.184  -0.104   0.538   0.107   0.543   0.126   0.125   0.018
       -9.235   0.078  -0.797  -1.128  -0.410  -1.131  -0.441  -0.100  -0.840

    2  -0.184  -3.268   0.226   0.150   0.352   0.149   0.349   0.409   0.103
        0.078  -0.373  -0.363   0.166  -0.003   0.165   0.000   0.147   0.172

  chi0(G,G') at the    4 th omega   9.0705   0.0000 [eV]
       1       2       3       4       5       6       7       8       9
    1  -5.361   0.113  -0.288  -0.181  -0.157  -0.175  -0.158  -0.249  -0.117
       -1.863  -0.038   0.026   0.010  -0.040   0.011  -0.040  -0.072  -0.081

    2   0.113  -2.960   0.201   0.273   0.104   0.271   0.103   0.285  -0.372
       -0.038  -0.224   0.109   0.057   0.048   0.057   0.048   0.136   0.020

  chi0(G,G') at the    5 th omega  12.0939   0.0000 [eV]
       1       2       3       4       5       6       7       8       9
    1  -2.676  -0.337   1.488  -0.035  -0.284  -0.033  -0.286  -0.049   1.462
      -12.516  -0.096  -0.293  -0.202  -0.267  -0.202  -0.268  -0.430   0.422

    2  -0.337  -2.908  -0.010   0.173   0.262   0.170   0.261  -0.143   0.003
       -0.096  -1.780   0.549   1.155   0.431   1.155   0.431   0.026   0.071

  chi0(G,G') at the    6 th omega  15.1174   0.0000 [eV]
       1       2       3       4       5       6       7       8       9
    1  -2.988   1.560  -0.264  -0.488   0.515  -0.465   0.514  -0.038  -0.476
       -7.984  -1.864  -0.560   0.590  -0.015   0.587  -0.016  -0.265  -0.423

    2   1.560  -4.702  -0.365   1.623   0.653   1.624   0.653   1.737  -0.248
       -1.864  -4.329   0.787   1.705  -0.060   1.699  -0.060  -0.426   0.984

  chi0(G,G') at the    7 th omega  18.1409   0.0000 [eV]
       1       2       3       4       5       6       7       8       9
    1   5.396   0.398   0.400  -0.144   0.593  -0.148   0.593   0.939   0.840
       -3.152   0.310   0.067  -0.199   0.059  -0.199   0.059  -0.420  -0.102

    2   0.398  -2.057   1.283  -0.119  -0.246  -0.114  -0.247  -1.510   0.456
        0.310  -2.782   2.231   0.630  -0.043   0.630  -0.044   2.123  -1.239

  chi0(G,G') at the    8 th omega  21.1644   0.0000 [eV]
       1       2       3       4       5       6       7       8       9
    1   3.307  -0.506   0.368   0.199   0.072   0.198   0.071   0.149   0.141
       -0.682   0.349  -0.185  -0.044   0.033  -0.043   0.034   0.056   0.054

    2  -0.506  -4.181  -0.911   0.197   0.312   0.199   0.306  -0.797   0.229
        0.349  -1.431   0.322   0.258   0.217   0.257   0.219   0.433   0.171

  chi0(G,G') at the    9 th omega  24.1879   0.0000 [eV]
       1       2       3       4       5       6       7       8       9
    1   2.683   0.196   0.334   0.265   0.216   0.265   0.215   0.145   0.089
       -0.425   0.033   0.127   0.192   0.167   0.191   0.167   0.035   0.092

    2   0.196  -2.363  -1.584   0.233  -0.654   0.235  -0.658   0.498  -0.220
        0.033  -1.669   1.099   0.014   0.680   0.014   0.680   0.467  -0.257

  chi0(G,G') at the   10 th omega  27.2114   0.0000 [eV]
       1       2       3       4       5       6       7       8       9
    1   1.787  -0.111   0.040   0.088   0.057   0.087   0.056   0.113   0.194
       -0.144   0.125  -0.053  -0.021   0.060  -0.021   0.060   0.020  -0.075

    2  -0.111  -0.461  -0.564  -1.005   0.703  -1.001   0.700  -0.036  -0.054
        0.125  -2.113  -0.182  -0.610  -0.530  -0.609  -0.530  -0.327   1.534

  chi0(G,G') at the   11 th omega   0.0000   3.8978 [eV]
       1       2       3       4       5       6       7       8       9
    1  -6.930  -0.022  -0.200  -0.133  -0.063  -0.132  -0.063  -0.098  -0.107
        0.000   0.002  -0.000   0.000  -0.001   0.000  -0.001   0.000  -0.000

    2  -0.022  -3.222   0.096   0.317   0.231   0.315   0.231   0.278   0.302
       -0.002   0.000  -0.001  -0.000   0.000  -0.000   0.000  -0.000   0.001

  chi0(G,G') at the   12 th omega   0.0000  10.6844 [eV]
       1       2       3       4       5       6       7       8       9
    1  -3.498   0.026  -0.114  -0.075  -0.009  -0.074  -0.010  -0.031  -0.051
        0.000   0.003  -0.000   0.000  -0.002   0.000  -0.002   0.000  -0.000

    2   0.026  -2.690   0.075   0.181   0.168   0.180   0.167   0.192   0.192
       -0.003   0.000   0.000   0.000   0.000   0.000   0.000   0.000   0.001

  chi0(G,G') at the   13 th omega   0.0000  22.5005 [eV]
       1       2       3       4       5       6       7       8       9
    1  -1.371   0.030  -0.043  -0.025   0.015  -0.024   0.014   0.003  -0.008
        0.000   0.003  -0.000   0.000  -0.001   0.000  -0.001   0.000  -0.000

    2   0.030  -1.936   0.026   0.071   0.107   0.070   0.106   0.098   0.115
       -0.003   0.000   0.000   0.000   0.000   0.000   0.000   0.000   0.001

  chi0(G,G') at the   14 th omega   0.0000  43.0734 [eV]
       1       2       3       4       5       6       7       8       9
    1  -0.464   0.019  -0.012  -0.005   0.015  -0.005   0.014   0.009   0.004
        0.000   0.002  -0.000   0.000  -0.001   0.000  -0.001   0.000  -0.000

    2   0.019  -1.134  -0.002   0.016   0.057   0.016   0.057   0.036   0.060
       -0.002   0.001  -0.000   0.000   0.000   0.000   0.000  -0.000   0.001

  Average fulfillment of the sum rule on Im[epsilon] for q-point    5 :     89.91  [%]


--------------------------------------------------------------------------------
  q-point number  6        q = (-0.250000, 0.250000, 0.000000) [r.l.u.]
--------------------------------------------------------------------------------
  chi0(G,G') at the    1 th omega   0.0000   0.0000 [eV]
       1       2       3       4       5       6       7       8       9
    1  -9.208  -0.204  -0.068  -0.145  -0.146  -0.143  -0.144  -0.065  -0.202
       -0.000   0.000  -0.000  -0.000  -0.000  -0.000  -0.000  -0.000   0.000

    2  -0.204  -9.357   0.078   0.777   0.332   0.772   0.333   0.560   0.263
       -0.000   0.000  -0.000  -0.000   0.000  -0.000   0.000   0.000   0.000

  chi0(G,G') at the    2 th omega   3.0235   0.0000 [eV]
       1       2       3       4       5       6       7       8       9
    1 -12.606  -0.223  -0.147  -0.175  -0.179  -0.166  -0.177  -0.142  -0.222
       -0.944   0.017  -0.032  -0.035  -0.035  -0.033  -0.035  -0.031   0.017

    2  -0.223 -10.003   0.103   0.053   1.105   0.044   1.106   0.500  -0.443
        0.017  -1.089   0.009   0.313  -0.239   0.312  -0.239   0.082   0.605

  chi0(G,G') at the    3 th omega   6.0470   0.0000 [eV]
       1       2       3       4       5       6       7       8       9
    1  -6.586  -0.092  -0.102  -0.121  -0.117  -0.118  -0.115  -0.107  -0.089
       -1.253  -0.011  -0.025  -0.036  -0.034  -0.037  -0.034  -0.025  -0.011

    2  -0.092  -6.929   0.162   0.297   0.093   0.309   0.093   0.495   0.736
       -0.011  -0.724   0.005   0.132   0.019   0.130   0.019  -0.015  -0.083

  chi0(G,G') at the    4 th omega   9.0705   0.0000 [eV]
       1       2       3       4       5       6       7       8       9
    1   4.224  -0.773   0.504   0.182   0.185   0.181   0.187   0.504  -0.774
      -11.034   2.023  -0.265  -0.456  -0.456  -0.456  -0.456  -0.264   2.023

    2  -0.773  -5.608   0.916  -0.305  -1.287  -0.303  -1.286  -0.806   1.953
        2.023  -5.773   0.244   0.677  -0.176   0.677  -0.176  -0.126  -1.606

  chi0(G,G') at the    5 th omega  12.0939   0.0000 [eV]
       1       2       3       4       5       6       7       8       9
    1  14.843   3.021  -0.892   0.615   0.626   0.628   0.614  -0.823   3.067
      -17.695  -0.609   1.153  -1.593  -1.584  -1.594  -1.577   1.054  -0.633

    2   3.021   0.805   0.699  -1.355  -1.378  -1.356  -1.388  -0.603  -0.231
       -0.609 -19.266  -0.977   6.285   2.195   6.281   2.197   0.207  -0.106

  chi0(G,G') at the    6 th omega  15.1174   0.0000 [eV]
       1       2       3       4       5       6       7       8       9
    1   5.370  -0.235   0.969  -0.023  -0.025  -0.030  -0.016   0.956  -0.235
       -5.357   0.162  -0.353   0.018   0.012   0.023   0.011  -0.343   0.154

    2  -0.235  -8.994   0.436   1.409  -0.370   1.417  -0.373  -0.015  -0.230
        0.162  -4.996   1.150   1.207  -1.214   1.202  -1.212  -0.719  -0.414

  chi0(G,G') at the    7 th omega  18.1409   0.0000 [eV]
       1       2       3       4       5       6       7       8       9
    1   4.014   0.665  -0.138   0.179   0.179   0.180   0.176  -0.141   0.667
       -0.584  -0.062   0.124  -0.008  -0.008  -0.008  -0.008   0.125  -0.062

    2   0.665   4.694  -0.649   1.817  -0.774   1.816  -0.775  -0.636   1.315
       -0.062  -6.296   0.338  -1.634   0.252  -1.634   0.252   0.563  -0.833

  chi0(G,G') at the    8 th omega  21.1644   0.0000 [eV]
       1       2       3       4       5       6       7       8       9
    1   2.442   0.181  -0.006  -0.006  -0.006  -0.007  -0.007  -0.008   0.186
       -0.144  -0.049   0.029   0.054   0.054   0.054   0.054   0.029  -0.049

    2   0.181   7.432  -0.439  -1.392   0.725  -1.393   0.727  -1.461   1.134
       -0.049  -3.208   0.736   0.111   0.070   0.110   0.070  -0.007  -0.528

  chi0(G,G') at the    9 th omega  24.1879   0.0000 [eV]
       1       2       3       4       5       6       7       8       9
    1   1.523   0.117   0.014   0.025   0.028   0.027   0.023   0.016   0.130
       -0.065   0.050  -0.030   0.033   0.031   0.033   0.033  -0.032   0.049

    2   0.117   9.148  -1.169  -1.610   0.386  -1.600   0.392  -1.203   1.045
        0.050  -3.259   1.139  -0.051  -0.389  -0.055  -0.389   0.181   0.076

  chi0(G,G') at the   10 th omega  27.2114   0.0000 [eV]
       1       2       3       4       5       6       7       8       9
    1   1.104   0.028   0.003   0.063   0.068   0.062   0.067  -0.002   0.026
       -0.055  -0.041   0.007   0.001   0.001   0.001   0.001   0.007  -0.041

    2   0.028   2.194  -2.351  -0.672  -0.576  -0.673  -0.575  -1.287  -0.035
       -0.041  -2.083  -0.071  -0.518  -0.032  -0.518  -0.032   0.026   0.468

  chi0(G,G') at the   11 th omega   0.0000   3.8978 [eV]
       1       2       3       4       5       6       7       8       9
    1  -6.512  -0.169  -0.011  -0.099  -0.099  -0.098  -0.098  -0.010  -0.167
       -0.000   0.000  -0.001   0.001   0.000   0.001   0.000  -0.001  -0.000

    2  -0.169  -7.361   0.107   0.478   0.272   0.475   0.272   0.358   0.085
       -0.000  -0.000  -0.003   0.001   0.000   0.001   0.000   0.001   0.000

  chi0(G,G') at the   12 th omega   0.0000  10.6844 [eV]
       1       2       3       4       5       6       7       8       9
    1  -3.007  -0.101   0.030  -0.034  -0.034  -0.034  -0.033   0.030  -0.100
       -0.000   0.000  -0.001   0.001   0.000   0.001   0.000  -0.000  -0.000

    2  -0.101  -4.510   0.084   0.197   0.142   0.196   0.142   0.169  -0.040
       -0.000  -0.000  -0.002   0.001   0.000   0.001   0.000   0.000  -0.000

  chi0(G,G') at the   13 th omega   0.0000  22.5005 [eV]
       1       2       3       4       5       6       7       8       9
    1  -1.078  -0.038   0.031  -0.001  -0.001  -0.001  -0.001   0.030  -0.037
       -0.000   0.000  -0.001   0.000   0.000   0.000   0.000   0.000  -0.000

    2  -0.038  -2.211   0.030   0.024   0.055   0.024   0.055   0.048  -0.049
       -0.000   0.000  -0.001   0.001   0.000   0.001   0.000   0.000  -0.000

  chi0(G,G') at the   14 th omega   0.0000  43.0734 [eV]
       1       2       3       4       5       6       7       8       9
    1  -0.348  -0.011   0.018   0.005   0.005   0.005   0.005   0.018  -0.010
       -0.000   0.000  -0.001  -0.000   0.000   0.000   0.000   0.000  -0.000

    2  -0.011  -0.882  -0.002  -0.018   0.019  -0.018   0.019   0.002  -0.025
       -0.000   0.000  -0.000   0.000   0.000   0.000   0.000   0.000  -0.000

  Average fulfillment of the sum rule on Im[epsilon] for q-point    6 :     90.56  [%]


--------------------------------------------------------------------------------
  q-point number  7        q = (-0.500000,-0.500000, 0.000000) [r.l.u.]
--------------------------------------------------------------------------------
  chi0(G,G') at the    1 th omega   0.0000   0.0000 [eV]
       1       2       3       4       5       6       7       8       9
    1  -9.098  -0.177  -0.116  -0.117  -0.179  -0.118  -0.178  -0.175  -0.116
       -0.000   0.000  -0.000   0.000  -0.000   0.000  -0.000  -0.000   0.000

    2  -0.177  -8.100   0.092   0.369   0.256   0.365   0.256   1.048   0.309
       -0.000   0.000  -0.000  -0.000   0.000   0.000   0.000  -0.000   0.000

  chi0(G,G') at the    2 th omega   3.0235   0.0000 [eV]
       1       2       3       4       5       6       7       8       9
    1 -12.172  -0.234  -0.178  -0.177  -0.237  -0.177  -0.234  -0.232  -0.174
       -0.595  -0.014  -0.015  -0.015  -0.014  -0.015  -0.014  -0.014  -0.015

    2  -0.234  -8.145   0.115   0.409   0.297   0.411   0.298   0.565   0.299
       -0.014  -0.108   0.003   0.005   0.004   0.005   0.004   0.033  -0.000

  chi0(G,G') at the    3 th omega   6.0470   0.0000 [eV]
       1       2       3       4       5       6       7       8       9
    1  -8.824  -0.211  -0.235  -0.231  -0.214  -0.231  -0.211  -0.209  -0.218
       -0.633  -0.008  -0.046  -0.046  -0.008  -0.046  -0.008  -0.008  -0.045

    2  -0.211 -12.056   0.102   0.794   0.722   0.794   0.723   1.034   0.323
       -0.008  -0.421   0.003   0.058   0.064   0.058   0.064   0.022  -0.030

  chi0(G,G') at the    4 th omega   9.0705   0.0000 [eV]
       1       2       3       4       5       6       7       8       9
    1  -6.512  -0.450   0.184   0.209  -0.455   0.209  -0.453  -0.449   0.139
       -8.060   1.889  -0.208  -0.308   1.885  -0.308   1.886   1.889  -0.203

    2  -0.450   1.902   1.247  -0.637  -3.981  -0.637  -3.981   1.375  -0.221
        1.889 -11.390  -0.053   0.323   0.022   0.323   0.022   3.141   0.547

  chi0(G,G') at the    5 th omega  12.0939   0.0000 [eV]
       1       2       3       4       5       6       7       8       9
    1   9.303   0.634   0.394   0.396   0.628   0.395   0.632   0.638   0.380
      -12.474  -0.538  -0.338  -0.338  -0.538  -0.338  -0.538  -0.538  -0.338

    2   0.634  -3.870   0.085   0.346   0.116   0.345   0.116  -0.078   0.065
       -0.538  -0.315  -0.004   0.007  -0.032   0.007  -0.032   0.033  -0.002

  chi0(G,G') at the    6 th omega  15.1174   0.0000 [eV]
       1       2       3       4       5       6       7       8       9
    1  -2.257  -0.587   0.101   0.137  -0.604   0.144  -0.585  -0.567   0.101
       -3.938  -0.233  -0.479  -0.472  -0.236  -0.477  -0.252  -0.249  -0.484

    2  -0.587 -22.418   0.251   1.792   0.126   1.795   0.124   9.163   0.384
       -0.233  -7.646   0.364   0.675   0.066   0.675   0.065   4.704  -0.419

  chi0(G,G') at the    7 th omega  18.1409   0.0000 [eV]
       1       2       3       4       5       6       7       8       9
    1   7.234   0.610  -0.228  -0.228   0.611  -0.231   0.592   0.591  -0.237
       -5.070  -0.394   0.163   0.164  -0.394   0.166  -0.387  -0.387   0.165

    2   0.610  10.350   0.041  -1.871  -1.421  -1.883  -1.415   4.554  -0.553
       -0.394  -9.602   0.119   1.141   1.204   1.141   1.205  -8.275   0.101

  chi0(G,G') at the    8 th omega  21.1644   0.0000 [eV]
       1       2       3       4       5       6       7       8       9
    1   3.596  -0.289   0.579   0.545  -0.334   0.544  -0.336  -0.289   0.575
       -3.316  -0.257   0.153   0.141  -0.275   0.141  -0.275  -0.256   0.153

    2  -0.289  -0.857   0.063   0.487  -0.617   0.488  -0.617   1.061   0.031
       -0.257  -1.217   0.043   0.237  -0.160   0.237  -0.160  -0.348   0.229

  chi0(G,G') at the    9 th omega  24.1879   0.0000 [eV]
       1       2       3       4       5       6       7       8       9
    1   5.303   0.230   0.097   0.089   0.222   0.089   0.222   0.230   0.092
       -1.015   0.112  -0.122  -0.123   0.112  -0.123   0.112   0.112  -0.122

    2   0.230   3.172  -1.007  -2.545   2.158  -2.545   2.159  -0.310   0.143
        0.112  -4.261   1.084   0.594  -0.281   0.594  -0.281  -0.174  -0.036

  chi0(G,G') at the   10 th omega  27.2114   0.0000 [eV]
       1       2       3       4       5       6       7       8       9
    1   0.911   0.288  -0.132  -0.184   0.333  -0.185   0.337   0.287  -0.138
       -1.977   0.106  -0.163  -0.147   0.055  -0.147   0.056   0.112  -0.164

    2   0.288   3.948  -2.451  -0.603  -1.049  -0.587  -1.047   0.902  -0.790
        0.106  -4.159   0.556   0.185  -0.417   0.186  -0.416  -1.020   1.106

  chi0(G,G') at the   11 th omega   0.0000   3.8978 [eV]
       1       2       3       4       5       6       7       8       9
    1  -7.128  -0.148  -0.075  -0.075  -0.151  -0.076  -0.149  -0.147  -0.075
       -0.000   0.000  -0.002   0.000  -0.000   0.000  -0.000   0.000   0.001

    2  -0.148  -6.959   0.100   0.319   0.204   0.318   0.205   0.550   0.270
       -0.000   0.000   0.000  -0.000  -0.000  -0.000  -0.000   0.000   0.000

  chi0(G,G') at the   12 th omega   0.0000  10.6844 [eV]
       1       2       3       4       5       6       7       8       9
    1  -4.027  -0.084  -0.021  -0.020  -0.086  -0.021  -0.085  -0.082  -0.021
       -0.000   0.000  -0.003   0.001  -0.000   0.001  -0.000   0.000   0.001

    2  -0.084  -4.698   0.080   0.186   0.083   0.186   0.084   0.199   0.184
       -0.000   0.000  -0.000   0.000  -0.000   0.000  -0.000  -0.000   0.000

  chi0(G,G') at the   13 th omega   0.0000  22.5005 [eV]
       1       2       3       4       5       6       7       8       9
    1  -1.763  -0.027   0.009   0.010  -0.029   0.010  -0.028  -0.026   0.009
       -0.000   0.000  -0.002   0.001  -0.000   0.001  -0.000   0.000   0.000

    2  -0.027  -2.500   0.032   0.070   0.015   0.070   0.015  -0.007   0.105
       -0.000   0.000  -0.000   0.001  -0.000   0.001  -0.000   0.000  -0.000

  chi0(G,G') at the   14 th omega   0.0000  43.0734 [eV]
       1       2       3       4       5       6       7       8       9
    1  -0.641  -0.005   0.014   0.015  -0.006   0.015  -0.005  -0.004   0.014
       -0.000   0.000  -0.001   0.001  -0.000   0.001  -0.000   0.000  -0.000

    2  -0.005  -1.079  -0.001   0.014  -0.001   0.014  -0.001  -0.033   0.051
       -0.000   0.000   0.000   0.001  -0.000   0.001  -0.000  -0.000  -0.000

  Average fulfillment of the sum rule on Im[epsilon] for q-point    7 :     89.14  [%]


--------------------------------------------------------------------------------
  q-point number  8        q = (-0.250000, 0.500000, 0.250000) [r.l.u.]
--------------------------------------------------------------------------------
  chi0(G,G') at the    1 th omega   0.0000   0.0000 [eV]
       1       2       3       4       5       6       7       8       9
    1  -9.589  -0.187  -0.113  -0.149  -0.171  -0.166  -0.148  -0.109  -0.185
        0.000   0.000   0.000   0.000  -0.000   0.000  -0.000   0.000   0.000

    2  -0.187  -9.589   0.094   0.527   0.367   0.719   0.397   0.349   0.202
       -0.000   0.000  -0.000   0.000  -0.000   0.000  -0.000   0.000   0.000

  chi0(G,G') at the    2 th omega   3.0235   0.0000 [eV]
       1       2       3       4       5       6       7       8       9
    1 -10.177  -0.501  -0.138  -0.220  -0.084  -0.089  -0.223  -0.131  -0.500
       -0.926  -0.315  -0.036  -0.008   0.239   0.240  -0.008  -0.034  -0.315

    2  -0.501 -10.176   0.037   0.504   1.352   1.934   0.350   0.312  -0.794
       -0.315  -0.927  -0.018   0.051   0.385   0.349  -0.006   0.013  -0.378

  chi0(G,G') at the    3 th omega   6.0470   0.0000 [eV]
       1       2       3       4       5       6       7       8       9
    1  -8.173  -0.133   0.038  -0.141  -0.361  -0.361  -0.129   0.047  -0.131
       -4.372  -0.240  -0.120  -0.065  -0.030  -0.030  -0.071  -0.121  -0.240

    2  -0.133  -8.177   0.242   0.328  -3.268   1.098   1.989   0.440  -1.756
       -0.240  -4.375  -0.092  -0.409   0.253   0.182   1.137   0.259   1.749

  chi0(G,G') at the    4 th omega   9.0705   0.0000 [eV]
       1       2       3       4       5       6       7       8       9
    1  -0.116  -0.618   0.131   0.010  -0.139  -0.138   0.011   0.119  -0.615
       -5.673  -0.013  -0.281   0.183  -0.151  -0.152   0.190  -0.270  -0.014

    2  -0.618  -0.113   0.095  -1.306   0.350   0.471   0.890   0.068  -2.119
       -0.013  -5.671  -0.066   1.225  -0.311   0.539  -1.071   0.226   3.180

  chi0(G,G') at the    5 th omega  12.0939   0.0000 [eV]
       1       2       3       4       5       6       7       8       9
    1   1.618   0.943   0.125  -0.082   0.026   0.023  -0.090   0.112   0.946
      -10.280  -1.299  -0.087  -0.340  -0.243  -0.250  -0.357  -0.088  -1.292

    2   0.943   1.620   0.363  -2.093   0.354  -4.277  -1.065  -0.027   2.353
       -1.299 -10.283  -0.077   1.784   0.837   2.623  -0.483   0.385  -0.042

  chi0(G,G') at the    6 th omega  15.1174   0.0000 [eV]
       1       2       3       4       5       6       7       8       9
    1  -0.132  -0.479   0.002  -0.130  -0.026  -0.024  -0.127   0.037  -0.475
       -5.415  -0.656  -0.212  -0.126  -0.090  -0.089  -0.126  -0.215  -0.656

    2  -0.479  -0.133  -0.187  -0.150  -0.996   1.556  -0.436   0.413  -1.835
       -0.656  -5.414   0.330   0.534   0.306   0.127   0.028   0.026  -0.059

  chi0(G,G') at the    7 th omega  18.1409   0.0000 [eV]
       1       2       3       4       5       6       7       8       9
    1   6.520   0.244   0.328   0.031  -0.099  -0.111   0.037   0.253   0.241
      -14.889   0.761  -0.471  -0.653   0.161   0.165  -0.621  -0.315   0.768

    2   0.244   6.490   0.385  -2.053  -0.130   1.477  -0.771  -0.321   0.663
        0.761 -14.902   0.931   1.313   0.566   3.746  -0.344   1.053  -2.307

  chi0(G,G') at the    8 th omega  21.1644   0.0000 [eV]
       1       2       3       4       5       6       7       8       9
    1   4.348  -0.421  -0.126   0.308   0.565   0.537   0.297  -0.104  -0.419
       -3.417  -0.111  -0.210   0.142   0.022   0.011   0.138  -0.199  -0.110

    2  -0.421   4.346  -0.689  -0.046   1.847  -2.167   0.187  -0.469   0.865
       -0.111  -3.418  -0.028   0.315   0.435  -0.529  -0.017   0.215  -0.717

  chi0(G,G') at the    9 th omega  24.1879   0.0000 [eV]
       1       2       3       4       5       6       7       8       9
    1   3.022   0.453   0.140   0.032  -0.027  -0.029   0.038   0.141   0.462
       -1.836   0.110  -0.056   0.430   0.064   0.063   0.432  -0.057   0.110

    2   0.453   3.003  -0.135  -0.452  -0.776   0.346  -0.187  -0.421   0.488
        0.110  -1.836   0.254   0.379  -0.160  -0.068  -0.255  -0.029   0.649

  chi0(G,G') at the   10 th omega  27.2114   0.0000 [eV]
       1       2       3       4       5       6       7       8       9
    1   3.842   0.007   0.321   0.598   0.349   0.345   0.601   0.320   0.008
       -0.599   0.014   0.056   0.045   0.031   0.031   0.050   0.056   0.017

    2   0.007   3.860  -0.664  -0.484   0.111  -0.062  -0.002  -0.268   0.329
        0.014  -0.592   0.048  -0.059   0.050  -0.174   0.057  -0.032   0.158

  chi0(G,G') at the   11 th omega   0.0000   3.8978 [eV]
       1       2       3       4       5       6       7       8       9
    1  -7.292  -0.152  -0.062  -0.106  -0.143  -0.142  -0.105  -0.061  -0.150
        0.000   0.000  -0.001   0.002  -0.000   0.000   0.000  -0.001   0.000

    2  -0.152  -7.291   0.094   0.373   0.317   0.494   0.302   0.249  -0.107
       -0.000  -0.000  -0.001   0.001   0.000   0.000   0.001   0.000   0.000

  chi0(G,G') at the   12 th omega   0.0000  10.6844 [eV]
       1       2       3       4       5       6       7       8       9
    1  -4.318  -0.094  -0.009  -0.050  -0.075  -0.075  -0.049  -0.009  -0.092
        0.000   0.000  -0.001   0.002  -0.000   0.000   0.000  -0.001   0.000

    2  -0.094  -4.316   0.069   0.173   0.118   0.184   0.182   0.132  -0.145
       -0.000  -0.000  -0.001   0.000   0.000   0.000   0.001   0.001  -0.000

  chi0(G,G') at the   13 th omega   0.0000  22.5005 [eV]
       1       2       3       4       5       6       7       8       9
    1  -2.011  -0.035   0.016  -0.005  -0.019  -0.019  -0.005   0.015  -0.034
       -0.000  -0.000  -0.001   0.001  -0.000   0.000   0.000  -0.000  -0.000

    2  -0.035  -2.010   0.025   0.043   0.036   0.003   0.092   0.046  -0.092
        0.000   0.000  -0.001  -0.000   0.000  -0.000   0.000   0.001  -0.000

  chi0(G,G') at the   14 th omega   0.0000  43.0734 [eV]
       1       2       3       4       5       6       7       8       9
    1  -0.768  -0.009   0.017   0.010   0.002   0.002   0.010   0.017  -0.008
       -0.000  -0.000  -0.001   0.001  -0.000  -0.000   0.000  -0.000  -0.000

    2  -0.009  -0.767  -0.000  -0.002   0.010  -0.027   0.041   0.010  -0.038
        0.000   0.000  -0.000  -0.000   0.000  -0.000   0.000   0.001  -0.000

  Average fulfillment of the sum rule on Im[epsilon] for q-point    8 :     89.46  [%]

== END DATASET(S) ==============================================================
================================================================================
  
 -outvars: echo values of variables after computation  --------
     acell    7.6520000000E+00  7.6520000000E+00  7.6520000000E+00 Bohr
       amu    2.69815390E+01
      ecut    8.00000000E+00 Hartree
   ecuteps    4.00000000E+00 Hartree
   ecutwfn    4.00000000E+00 Hartree
    enunit         1
    etotal    0.0000000000E+00
     fcart    0.0000000000E+00  0.0000000000E+00  0.0000000000E+00
 freqremax    1.00000000E+00 Hartree
 gwcalctyp         2
    istwfk      1    0    1    0    0    0    1    0
       ixc         7
       kpt    0.00000000E+00  0.00000000E+00  0.00000000E+00
              2.50000000E-01  0.00000000E+00  0.00000000E+00
              5.00000000E-01  0.00000000E+00  0.00000000E+00
              2.50000000E-01  2.50000000E-01  0.00000000E+00
              5.00000000E-01  2.50000000E-01  0.00000000E+00
             -2.50000000E-01  2.50000000E-01  0.00000000E+00
              5.00000000E-01  5.00000000E-01  0.00000000E+00
             -2.50000000E-01  5.00000000E-01  2.50000000E-01
   kptrlen    2.16431244E+01
    kptopt         1
  kptrlatt    4  0  0   0  4  0   0  0  4
P    mkmem         8
     natom         1
   nfreqim         4
   nfreqre        10
     nband        30
     ngfft        15      15      15
      nkpt         8
     nstep        50
      nsym        48
    ntypat         1
       occ    2.000000  1.000000  0.000000  0.000000  0.000000  0.000000
              0.000000  0.000000  0.000000  0.000000  0.000000  0.000000
              0.000000  0.000000  0.000000  0.000000  0.000000  0.000000
              0.000000  0.000000  0.000000  0.000000  0.000000  0.000000
              0.000000  0.000000  0.000000  0.000000  0.000000  0.000000
              2.000000  1.000000  0.000000  0.000000  0.000000  0.000000
              0.000000  0.000000  0.000000  0.000000  0.000000  0.000000
              0.000000  0.000000  0.000000  0.000000  0.000000  0.000000
              0.000000  0.000000  0.000000  0.000000  0.000000  0.000000
              0.000000  0.000000  0.000000  0.000000  0.000000  0.000000
              2.000000  1.000000  0.000000  0.000000  0.000000  0.000000
              0.000000  0.000000  0.000000  0.000000  0.000000  0.000000
              0.000000  0.000000  0.000000  0.000000  0.000000  0.000000
              0.000000  0.000000  0.000000  0.000000  0.000000  0.000000
              0.000000  0.000000  0.000000  0.000000  0.000000  0.000000
              2.000000  1.000000  0.000000  0.000000  0.000000  0.000000
              0.000000  0.000000  0.000000  0.000000  0.000000  0.000000
              0.000000  0.000000  0.000000  0.000000  0.000000  0.000000
              0.000000  0.000000  0.000000  0.000000  0.000000  0.000000
              0.000000  0.000000  0.000000  0.000000  0.000000  0.000000
              2.000000  1.000000  0.000000  0.000000  0.000000  0.000000
              0.000000  0.000000  0.000000  0.000000  0.000000  0.000000
              0.000000  0.000000  0.000000  0.000000  0.000000  0.000000
              0.000000  0.000000  0.000000  0.000000  0.000000  0.000000
              0.000000  0.000000  0.000000  0.000000  0.000000  0.000000
              2.000000  1.000000  0.000000  0.000000  0.000000  0.000000
              0.000000  0.000000  0.000000  0.000000  0.000000  0.000000
              0.000000  0.000000  0.000000  0.000000  0.000000  0.000000
              0.000000  0.000000  0.000000  0.000000  0.000000  0.000000
              0.000000  0.000000  0.000000  0.000000  0.000000  0.000000
              2.000000  1.000000  0.000000  0.000000  0.000000  0.000000
              0.000000  0.000000  0.000000  0.000000  0.000000  0.000000
              0.000000  0.000000  0.000000  0.000000  0.000000  0.000000
              0.000000  0.000000  0.000000  0.000000  0.000000  0.000000
              0.000000  0.000000  0.000000  0.000000  0.000000  0.000000
              2.000000  1.000000  0.000000  0.000000  0.000000  0.000000
              0.000000  0.000000  0.000000  0.000000  0.000000  0.000000
              0.000000  0.000000  0.000000  0.000000  0.000000  0.000000
              0.000000  0.000000  0.000000  0.000000  0.000000  0.000000
              0.000000  0.000000  0.000000  0.000000  0.000000  0.000000
    occopt         3
 optdriver         3
    prtvol         5
     rprim    0.0000000000E+00  5.0000000000E-01  5.0000000000E-01
              5.0000000000E-01  0.0000000000E+00  5.0000000000E-01
              5.0000000000E-01  5.0000000000E-01  0.0000000000E+00
   spgroup       225
    strten    0.0000000000E+00  0.0000000000E+00  0.0000000000E+00
              0.0000000000E+00  0.0000000000E+00  0.0000000000E+00
    symrel    1  0  0   0  1  0   0  0  1      -1  0  0   0 -1  0   0  0 -1
              0 -1  1   0 -1  0   1 -1  0       0  1 -1   0  1  0  -1  1  0
             -1  0  0  -1  0  1  -1  1  0       1  0  0   1  0 -1   1 -1  0
              0  1 -1   1  0 -1   0  0 -1       0 -1  1  -1  0  1   0  0  1
             -1  0  0  -1  1  0  -1  0  1       1  0  0   1 -1  0   1  0 -1
              0 -1  1   1 -1  0   0 -1  0       0  1 -1  -1  1  0   0  1  0
              1  0  0   0  0  1   0  1  0      -1  0  0   0  0 -1   0 -1  0
              0  1 -1   0  0 -1   1  0 -1       0 -1  1   0  0  1  -1  0  1
             -1  0  1  -1  1  0  -1  0  0       1  0 -1   1 -1  0   1  0  0
              0 -1  0   1 -1  0   0 -1  1       0  1  0  -1  1  0   0  1 -1
              1  0 -1   0  0 -1   0  1 -1      -1  0  1   0  0  1   0 -1  1
              0  1  0   0  0  1   1  0  0       0 -1  0   0  0 -1  -1  0  0
              1  0 -1   0  1 -1   0  0 -1      -1  0  1   0 -1  1   0  0  1
              0 -1  0   0 -1  1   1 -1  0       0  1  0   0  1 -1  -1  1  0
             -1  0  1  -1  0  0  -1  1  0       1  0 -1   1  0  0   1 -1  0
              0  1  0   1  0  0   0  0  1       0 -1  0  -1  0  0   0  0 -1
              0  0 -1   0  1 -1   1  0 -1       0  0  1   0 -1  1  -1  0  1
              1 -1  0   0 -1  1   0 -1  0      -1  1  0   0  1 -1   0  1  0
              0  0  1   1  0  0   0  1  0       0  0 -1  -1  0  0   0 -1  0
             -1  1  0  -1  0  0  -1  0  1       1 -1  0   1  0  0   1  0 -1
              0  0  1   0  1  0   1  0  0       0  0 -1   0 -1  0  -1  0  0
              1 -1  0   0 -1  0   0 -1  1      -1  1  0   0  1  0   0  1 -1
              0  0 -1   1  0 -1   0  1 -1       0  0  1  -1  0  1   0 -1  1
             -1  1  0  -1  0  1  -1  0  0       1 -1  0   1  0 -1   1  0  0
    toldfe    1.00000000E-08 Hartree
    tsmear    5.00000000E-02 Hartree
     typat    1
       wtk      0.01563    0.12500    0.06250    0.09375    0.37500    0.18750
                0.04688    0.09375
     znucl     13.00000

================================================================================

- Total cpu        time (s,m,h):         22.5        0.38      0.006
- Total wall clock time (s,m,h):         22.5        0.38      0.006

- For major independent code sections, cpu and wall times (sec),
- as well as % of the total time and number of calls 

- routine                 cpu     %       wall     %      number of calls 
-                                                          (-1=no count)
- screenin/=fourdp      19.603  87.0     19.589  86.9              1
- fourdp                 7.199  31.9      7.214  32.0         242164
- timing timab           0.359   1.6      0.360   1.6             11
- pspini                 0.252   1.1      0.252   1.1              1
- 66   others           -4.678 -20.7     -4.674 -20.7

- subtotal              22.735 100.8     22.741 100.9

================================================================================

 Calculation completed.
.Delivered    4 WARNINGs and   0 COMMENTs to log file.
+Overall time at end (sec) : cpu=         22.5  wall=         22.5
