
.Version 5.5.3  of ABINIT 
.(sequential version, prepared for a x86_64_linux_intel9.1 computer) 

.Copyright (C) 1998-2007 ABINIT group . 
 ABINIT comes with ABSOLUTELY NO WARRANTY.
 It is free software, and you are welcome to redistribute it
 under certain conditions (GNU General Public License,
 see ~abinit/COPYING or http://www.gnu.org/copyleft/gpl.txt).

 ABINIT is a project of the Universite Catholique de Louvain,
 Corning Inc. and other collaborators, see ~abinit/doc/developers/contributors.txt .
 Please read ~abinit/doc/users/acknowledgments.html for suggested
 acknowledgments of the ABINIT effort.
 For more information, see http://www.abinit.org .

.Starting date : Thu 22 May 2008.
  
- input  file    -> tldau_2.in
- output file    -> tldau_2.out
- root for input  files -> tldau_2i
- root for output files -> tldau_2o


 Magnetic group, Shubnikov type IV
 Fedorov space group R-3 m (#166)
 Magnetic Bravais lattice hR_I (rhombohedral, centered magnetic, #31)
================================================================================
 Values of the parameters that define the memory need of the present run
   intxc =         0  ionmov =         0    iscf =        17 xclevel =         1
  lmnmax =        18   lnmax =         6   mband =        40  mffmem =         1
P  mgfft =        40   mkmem =        10 mpssoang=         3     mpw =       695
  mqgrid =      3001   natom =         4    nfft =     16000    nkpt =        10
  nloalg =         4  nspden =         2 nspinor =         1  nsppol =         1
    nsym =        24  n1xccc =         1  ntypat =         2  occopt =         1
 PAW method is used; the additional fine FFT grid is defined by:
   mgfftf=        60    nfftf =     54000
================================================================================
P This job should need less than                      42.593 Mbytes of memory.
  Rough estimation (10% accuracy) of disk space for files :
  WF disk file :      4.244 Mbytes ; DEN or POT disk file :      0.414 Mbytes.
================================================================================

 -outvars: echo values of preprocessed input variables --------
     acell    7.9200000000E+00  7.9200000000E+00  7.9200000000E+00 Bohr
       amu    5.86900000E+01  1.59994000E+01
      ecut    1.50000000E+01 Hartree
    istwfk      0    0    0    0    0    0    0    0    0    9
       ixc         7
       kpt    1.66666667E-01  1.66666667E-01  1.66666667E-01
              5.00000000E-01  1.66666667E-01  1.66666667E-01
             -1.66666667E-01  1.66666667E-01  1.66666667E-01
              5.00000000E-01  5.00000000E-01  1.66666667E-01
             -1.66666667E-01  5.00000000E-01  1.66666667E-01
             -1.66666667E-01 -1.66666667E-01  1.66666667E-01
              1.66666667E-01  1.66666667E-01  5.00000000E-01
              5.00000000E-01  1.66666667E-01  5.00000000E-01
             -1.66666667E-01  1.66666667E-01  5.00000000E-01
              5.00000000E-01  5.00000000E-01  5.00000000E-01
   kptrlen    1.68008571E+01
    kptopt         1
  kptrlatt    3  0  0   0  3  0   0  0  3
P    mkmem        10
     natom         4
     nband        40
     ngfft        20      20      40
   ngfftdg        30      30      60
      nkpt        10
    nspden         2
     nstep        50
      nsym        24
    ntypat         2
       occ    2.000000  2.000000  2.000000  2.000000  2.000000  2.000000
              2.000000  2.000000  2.000000  2.000000  2.000000  2.000000
              2.000000  2.000000  2.000000  2.000000  0.000000  0.000000
              0.000000  0.000000  0.000000  0.000000  0.000000  0.000000
              0.000000  0.000000  0.000000  0.000000  0.000000  0.000000
              0.000000  0.000000  0.000000  0.000000  0.000000  0.000000
              0.000000  0.000000  0.000000  0.000000
 pawecutdg    3.00000000E+01 Hartree
   usepawu         1
     jpawu    2.93994603E-02  0.00000000E+00
     lpawu         2      -1
     upawu    2.93994603E-01  0.00000000E+00
 prtdensph         1
    ratsph    2.31080032E+00 Bohr
     rprim    0.0000000000E+00  5.0000000000E-01  5.0000000000E-01
              5.0000000000E-01  0.0000000000E+00  5.0000000000E-01
              1.0000000000E+00  1.0000000000E+00  0.0000000000E+00
    shiftk    5.00000000E-01  5.00000000E-01  5.00000000E-01
   spgroup       166
    spinat    0.0000000000E+00  0.0000000000E+00  1.0000000000E+00
              0.0000000000E+00  0.0000000000E+00 -1.0000000000E+00
              0.0000000000E+00  0.0000000000E+00  0.0000000000E+00
              0.0000000000E+00  0.0000000000E+00  0.0000000000E+00
    symafm    1 -1  1  -1  1 -1   1 -1  1      -1  1 -1   1 -1  1  -1  1 -1
              1 -1  1  -1  1 -1
    symrel    1  0  0   0  1  0   0  0  1       1  0  0   0  1  0   0  0  1
             -1  0  0   0 -1  0   0  0 -1      -1  0  0   0 -1  0   0  0 -1
              0  1  0   1  0  0   0  0  1       0  1  0   1  0  0   0  0  1
              0 -1  0  -1  0  0   0  0 -1       0 -1  0  -1  0  0   0  0 -1
              0 -1  0   1 -1  0   0 -2  1       0 -1  0   1 -1  0   0 -2  1
              0  1  0  -1  1  0   0  2 -1       0  1  0  -1  1  0   0  2 -1
              1 -1  0   0 -1  0   0 -2  1       1 -1  0   0 -1  0   0 -2  1
             -1  1  0   0  1  0   0  2 -1      -1  1  0   0  1  0   0  2 -1
             -1  1  0  -1  0  0  -2  0  1      -1  1  0  -1  0  0  -2  0  1
              1 -1  0   1  0  0   2  0 -1       1 -1  0   1  0  0   2  0 -1
             -1  0  0  -1  1  0  -2  0  1      -1  0  0  -1  1  0  -2  0  1
              1  0  0   1 -1  0   2  0 -1       1  0  0   1 -1  0   2  0 -1
     tnons    0.0000000  0.0000000  0.0000000     0.0000000  0.0000000  0.5000000
              0.0000000  0.0000000  0.0000000     0.0000000  0.0000000  0.5000000
              0.0000000  0.0000000  0.0000000     0.0000000  0.0000000  0.5000000
              0.0000000  0.0000000  0.0000000     0.0000000  0.0000000  0.5000000
              0.0000000  0.0000000  0.0000000     0.0000000  0.0000000  0.5000000
              0.0000000  0.0000000  0.0000000     0.0000000  0.0000000  0.5000000
              0.0000000  0.0000000  0.0000000     0.0000000  0.0000000  0.5000000
              0.0000000  0.0000000  0.0000000     0.0000000  0.0000000  0.5000000
              0.0000000  0.0000000  0.0000000     0.0000000  0.0000000  0.5000000
              0.0000000  0.0000000  0.0000000     0.0000000  0.0000000  0.5000000
              0.0000000  0.0000000  0.0000000     0.0000000  0.0000000  0.5000000
              0.0000000  0.0000000  0.0000000     0.0000000  0.0000000  0.5000000
    toldfe    1.00000000E-05 Hartree
     typat    1  1  2  2
    useylm         1
       wtk      0.07407    0.14815    0.14815    0.07407    0.14815    0.07407
                0.07407    0.14815    0.07407    0.03704
    xangst    0.0000000000E+00  0.0000000000E+00  0.0000000000E+00
              2.0955417460E+00  2.0955417460E+00  0.0000000000E+00
              2.0955417460E+00  2.0955417460E+00  2.0955417460E+00
              4.1910834920E+00  4.1910834920E+00  2.0955417460E+00
     xcart    0.0000000000E+00  0.0000000000E+00  0.0000000000E+00
              3.9600000000E+00  3.9600000000E+00  0.0000000000E+00
              3.9600000000E+00  3.9600000000E+00  3.9600000000E+00
              7.9200000000E+00  7.9200000000E+00  3.9600000000E+00
      xred    0.0000000000E+00  0.0000000000E+00  0.0000000000E+00
              0.0000000000E+00  0.0000000000E+00  5.0000000000E-01
              5.0000000000E-01  5.0000000000E-01  2.5000000000E-01
              5.0000000000E-01  5.0000000000E-01  7.5000000000E-01
     znucl     28.00000    8.00000

================================================================================

 chkinp: Checking input parameters for consistency.

================================================================================
== DATASET  1 ==================================================================

 Real(R)+Recip(G) space primitive vectors, cartesian coordinates (Bohr,Bohr^-1):
 R(1)=  0.0000000  3.9600000  3.9600000  G(1)= -0.1262626  0.1262626  0.1262626
 R(2)=  3.9600000  0.0000000  3.9600000  G(2)=  0.1262626 -0.1262626  0.1262626
 R(3)=  7.9200000  7.9200000  0.0000000  G(3)=  0.0631313  0.0631313 -0.0631313
 Unit cell volume ucvol=  2.4839654E+02 bohr^3
 Angles (23,13,12)=  6.00000000E+01  6.00000000E+01  6.00000000E+01 degrees

 Coarse grid specifications (used for wave-functions):

 getcut: wavevector=  0.0000  0.0000  0.0000  ngfft=  20  20  40
         ecut(hartree)=     15.000   => boxcut(ratio)=   2.04837

 Fine grid specifications (used for densities):

 getcut: wavevector=  0.0000  0.0000  0.0000  ngfft=  30  30  60
         ecut(hartree)=     30.000   => boxcut(ratio)=   2.17444

--- Pseudopotential description ------------------------------------------------
- pspini: atom type   1  psp file is ../PAW/ni_atompaw.paw
- pspatm: opening atomic psp file    ../PAW/ni_atompaw.paw
 Paw atomic data for element Ni - Generated by AtomPAW (N. Holzwarth) + AtomPAW2Abinit v3.1.1
  28.00000  10.00000  20070601                znucl, zion, pspdat
    7    7    2    0      1080   0.00000      pspcod,pspxc,lmax,lloc,mmax,r2well
 Pseudopotential format is: paw3
 basis_size (lnmax)=  6 (lmn_size= 18), orbitals=   0   0   1   1   2   2
 Spheres core radius: rc_sph= 2.31080032
 4 radial meshes are used:
  - mesh 1: r(i)=AA*[exp(BB*(i-1))-1], size=1080 , AA= 0.29784E-03 BB= 0.83395E-02
  - mesh 2: r(i)=AA*[exp(BB*(i-1))-1], size=1075 , AA= 0.29784E-03 BB= 0.83395E-02
  - mesh 3: r(i)=AA*[exp(BB*(i-1))-1], size=1165 , AA= 0.29784E-03 BB= 0.83395E-02
  - mesh 4: r(i)=AA*[exp(BB*(i-1))-1], size=1250 , AA= 0.29784E-03 BB= 0.83395E-02
 Shapefunction is BESSEL type: shapef(r,l)=aa(1,l)*jl(q(1,l)*r)+aa(2,l)*jl(q(2,l)*r)
 Radius for shape functions =  2.00531667
 Radial grid used for partial waves is grid 1
 Radial grid used for projectors is grid 2
 Radial grid used for (t)core density is grid 3
 Radial grid used for Vloc is grid 4
 pspatm: atomic psp has been read  and splines computed

- pspini: atom type   2  psp file is ../PAW/O_LDA_abinit
- pspatm: opening atomic psp file    ../PAW/O_LDA_abinit
 Paw atomic data for element O - Generated by AtomPAW (N. Holzwarth) + AtomPAW2Abinit v3.1.1
   8.00000   6.00000  20070409                znucl, zion, pspdat
    7    7    1    0      1311   0.00000      pspcod,pspxc,lmax,lloc,mmax,r2well
 Pseudopotential format is: paw3
 basis_size (lnmax)=  4 (lmn_size=  8), orbitals=   0   0   1   1
 Spheres core radius: rc_sph= 1.41465230
 4 radial meshes are used:
  - mesh 1: r(i)=AA*[exp(BB*(i-1))-1], size=1311 , AA= 0.72565E-03 BB= 0.58052E-02
  - mesh 2: r(i)=AA*[exp(BB*(i-1))-1], size=1306 , AA= 0.72565E-03 BB= 0.58052E-02
  - mesh 3: r(i)=AA*[exp(BB*(i-1))-1], size=1329 , AA= 0.72565E-03 BB= 0.58052E-02
  - mesh 4: r(i)=AA*[exp(BB*(i-1))-1], size=1642 , AA= 0.72565E-03 BB= 0.58052E-02
 Shapefunction is SIN type: shapef(r)=[sin(pi*r/rshp)/(pi*r/rshp)]**2
 Radius for shape functions = sphere core radius
 Radial grid used for partial waves is grid 1
 Radial grid used for projectors is grid 2
 Radial grid used for (t)core density is grid 3
 Radial grid used for Vloc is grid 4
 pspatm: atomic psp has been read  and splines computed

   9.66185307E+02                                ecore*ucvol(ha*bohr**3)
--------------------------------------------------------------------------------

P newkpt: treating     40 bands with npw=     687 for ikpt=   1
P newkpt: treating     40 bands with npw=     694 for ikpt=   2
P newkpt: treating     40 bands with npw=     684 for ikpt=   3
P newkpt: treating     40 bands with npw=     686 for ikpt=   4
P newkpt: treating     40 bands with npw=     695 for ikpt=   5
P newkpt: treating     40 bands with npw=     681 for ikpt=   6
P newkpt: treating     40 bands with npw=     684 for ikpt=   7
P newkpt: treating     40 bands with npw=     694 for ikpt=   8
P newkpt: treating     40 bands with npw=     680 for ikpt=   9
P newkpt: treating     40 bands with npw=     346 for ikpt=  10
 
 setup2: Arith. and geom. avg. npw (full set) are     688.741     688.719


******************************************
 LDA+U Method used: FLL
******************************************

================================================================================

     iter   Etot(hartree)      deltaE(h)  residm     nres2    diffor    maxfor
 ETOT  1  -114.00668786529    -1.140E+02 5.269E+01 2.024E+03 0.000E+00 0.000E+00
 ETOT  2  -117.16527820250    -3.159E+00 4.601E+00 1.722E+03 0.000E+00 0.000E+00
 ETOT  3  -112.73217016874     4.433E+00 2.335E+01 6.650E+02 8.715E-32 8.715E-32
 ETOT  4  -111.63046157300     1.102E+00 3.552E+00 3.412E+01 8.715E-32 0.000E+00
 ETOT  5  -111.76897697164    -1.385E-01 2.758E-01 2.381E+01 0.000E+00 0.000E+00
 ETOT  6  -111.80390240971    -3.493E-02 1.222E-01 3.167E+01 0.000E+00 0.000E+00
 ETOT  7  -111.72362009044     8.028E-02 1.659E-01 1.064E+01 0.000E+00 0.000E+00
 ETOT  8  -111.71891326932     4.707E-03 3.718E-02 1.407E+01 0.000E+00 0.000E+00
 ETOT  9  -111.79419937837    -7.529E-02 1.975E-01 2.643E+01 0.000E+00 0.000E+00
 ETOT 10  -111.81269981585    -1.850E-02 3.213E-02 4.094E+01 4.980E-32 4.980E-32
 ETOT 11  -111.73468785543     7.801E-02 1.062E-01 2.618E+00 4.980E-32 0.000E+00
 ETOT 12  -111.73419460150     4.933E-04 2.049E-02 9.884E-01 9.960E-32 9.960E-32
 ETOT 13  -111.73636906164    -2.174E-03 4.399E-03 1.740E+00 9.960E-32 0.000E+00
 ETOT 14  -111.73614915972     2.199E-04 1.377E-02 1.556E+00 0.000E+00 0.000E+00
 ETOT 15  -111.73433794694     1.811E-03 6.354E-03 8.543E-01 4.980E-32 4.980E-32
 ETOT 16  -111.73463475953    -2.968E-04 2.854E-03 9.431E-01 4.980E-32 0.000E+00
 ETOT 17  -111.73367568479     9.591E-04 5.036E-04 4.392E-01 4.980E-32 4.980E-32
 ETOT 18  -111.73372390859    -4.822E-05 6.429E-04 3.200E-01 4.980E-32 0.000E+00
 ETOT 19  -111.73375026567    -2.636E-05 1.438E-04 3.244E-01 0.000E+00 0.000E+00
 ETOT 20  -111.73372999809     2.027E-05 4.401E-04 2.989E-01 0.000E+00 0.000E+00
 ETOT 21  -111.73366579847     6.420E-05 1.038E-04 1.373E-02 4.980E-32 4.980E-32
 ETOT 22  -111.73368855931    -2.276E-05 2.989E-04 2.252E-01 4.980E-32 0.000E+00
 ETOT 23  -111.73367338266     1.518E-05 8.097E-05 5.786E-02 0.000E+00 0.000E+00
 ETOT 24  -111.73367251692     8.657E-07 2.022E-04 5.239E-02 0.000E+00 0.000E+00
 ETOT 25  -111.73367745962    -4.943E-06 6.193E-05 7.643E-02 0.000E+00 0.000E+00

 At SCF step   25, etot is converged :
  for the second time, diff in etot=  4.943E-06 < toldfe=  1.000E-05

 Cartesian components of stress tensor (hartree/bohr^3)
  sigma(1 1)=  1.25788711E-03  sigma(3 2)= -1.24379335E-05
  sigma(2 2)=  1.25788711E-03  sigma(3 1)= -1.24379335E-05
  sigma(3 3)=  1.25788711E-03  sigma(2 1)=  1.24379335E-05
 

 Integrated total density in atomic spheres:
 -------------------------------------------
 Atom  Sphere radius  Integrated_up_density  Integrated_dn_density  Total(up+dn)   Diff(up-dn)
    1        2.31080             4.58020097             4.49425496    9.07445593    0.08594600
    2        2.31080             4.49425496             4.58020097    9.07445593   -0.08594600
    3        2.31080             3.42737342             3.42737342    6.85474683    0.00000000
    4        2.31080             3.42737342             3.42737342    6.85474683    0.00000000
 Note: Diff(up-dn) can be considered as a rough approximation of a local magnetic moment.



 PAW TEST:
 ==== Compensation charge inside spheres ============
 The following values must be close...
 Compensation charge over spherical meshes =     13.682887713076592
 Compensation charge over fine fft grid    =     13.682795506769521

 ==== Results concerning PAW augmentation regions ====
 
 Total pseudopotential strength Dij (hartree):
 Atom #  1 - Spin component 1
   0.38546  -0.04237   0.00000   0.00000   0.00000   0.00000   0.00000   0.00000   0.00000   0.00000   0.00000   0.00000 ...
  -0.04237   9.72668   0.00000   0.00000   0.00000   0.00000   0.00000   0.00000   0.00008  -0.00008   0.00000  -0.00008 ...
   0.00000   0.00000   0.04240   0.00000   0.00000   0.04169   0.00001  -0.00001   0.00000   0.00000   0.00000   0.00000 ...
   0.00000   0.00000   0.00000   0.04240   0.00000   0.00001   0.04169   0.00001   0.00000   0.00000   0.00000   0.00000 ...
   0.00000   0.00000   0.00000   0.00000   0.04240  -0.00001   0.00001   0.04169   0.00000   0.00000   0.00000   0.00000 ...
   0.00000   0.00000   0.04169   0.00001  -0.00001  21.94489   0.00072  -0.00072   0.00000   0.00000   0.00000   0.00000 ...
   0.00000   0.00000   0.00001   0.04169   0.00001   0.00072  21.94489   0.00072   0.00000   0.00000   0.00000   0.00000 ...
   0.00000   0.00000  -0.00001   0.00001   0.04169  -0.00072   0.00072  21.94489   0.00000   0.00000   0.00000   0.00000 ...
   0.00000   0.00008   0.00000   0.00000   0.00000   0.00000   0.00000   0.00000  -0.09472   0.00031  -0.00132   0.00031 ...
   0.00000  -0.00008   0.00000   0.00000   0.00000   0.00000   0.00000   0.00000   0.00031  -0.09472  -0.00066  -0.00031 ...
   0.00000   0.00000   0.00000   0.00000   0.00000   0.00000   0.00000   0.00000  -0.00132  -0.00066  -0.03346  -0.00066 ...
   0.00000  -0.00008   0.00000   0.00000   0.00000   0.00000   0.00000   0.00000   0.00031  -0.00031  -0.00066  -0.09472 ...
   ...  only 12  components have been written...
 Atom #  1 - Spin component 2
   0.38545  -0.04239   0.00000   0.00000   0.00000   0.00000   0.00000   0.00000   0.00007  -0.00007   0.00000  -0.00007 ...
  -0.04239   9.72667   0.00000   0.00000   0.00000   0.00000   0.00000   0.00000   0.00015  -0.00015   0.00000  -0.00015 ...
   0.00000   0.00000   0.04240   0.00000   0.00000   0.04168   0.00006  -0.00006   0.00000   0.00000   0.00000   0.00000 ...
   0.00000   0.00000   0.00000   0.04240   0.00000   0.00006   0.04168   0.00006   0.00000   0.00000   0.00000   0.00000 ...
   0.00000   0.00000   0.00000   0.00000   0.04240  -0.00006   0.00006   0.04168   0.00000   0.00000   0.00000   0.00000 ...
   0.00000   0.00000   0.04168   0.00006  -0.00006  21.94478   0.00127  -0.00127   0.00000   0.00000   0.00000   0.00000 ...
   0.00000   0.00000   0.00006   0.04168   0.00006   0.00127  21.94478   0.00127   0.00000   0.00000   0.00000   0.00000 ...
   0.00000   0.00000  -0.00006   0.00006   0.04168  -0.00127   0.00127  21.94478   0.00000   0.00000   0.00000   0.00000 ...
   0.00007   0.00015   0.00000   0.00000   0.00000   0.00000   0.00000   0.00000  -0.09480   0.00020   0.00112   0.00020 ...
  -0.00007  -0.00015   0.00000   0.00000   0.00000   0.00000   0.00000   0.00000   0.00020  -0.09480   0.00056  -0.00020 ...
   0.00000   0.00000   0.00000   0.00000   0.00000   0.00000   0.00000   0.00000   0.00112   0.00056  -0.03324   0.00056 ...
  -0.00007  -0.00015   0.00000   0.00000   0.00000   0.00000   0.00000   0.00000   0.00020  -0.00020   0.00056  -0.09480 ...
   ...  only 12  components have been written...
 Atom #  4 - Spin component 1
   0.87969  -2.70636   0.00000   0.00000   0.00000   0.00000   0.00000   0.00000
  -2.70636   8.27893   0.00000   0.00000   0.00000   0.00000   0.00000   0.00000
   0.00000   0.00000  -0.20857  -0.00007   0.00007   0.44166   0.00031  -0.00031
   0.00000   0.00000  -0.00007  -0.20857  -0.00007   0.00031   0.44166   0.00031
   0.00000   0.00000   0.00007  -0.00007  -0.20857  -0.00031   0.00031   0.44166
   0.00000   0.00000   0.44166   0.00031  -0.00031   1.95224  -0.00147   0.00147
   0.00000   0.00000   0.00031   0.44166   0.00031  -0.00147   1.95224  -0.00147
   0.00000   0.00000  -0.00031   0.00031   0.44166   0.00147  -0.00147   1.95224
 Atom #  4 - Spin component 2
   0.87969  -2.70636   0.00000   0.00000   0.00000   0.00000   0.00000   0.00000
  -2.70636   8.27893   0.00000   0.00000   0.00000   0.00000   0.00000   0.00000
   0.00000   0.00000  -0.20857  -0.00007   0.00007   0.44166   0.00031  -0.00031
   0.00000   0.00000  -0.00007  -0.20857  -0.00007   0.00031   0.44166   0.00031
   0.00000   0.00000   0.00007  -0.00007  -0.20857  -0.00031   0.00031   0.44166
   0.00000   0.00000   0.44166   0.00031  -0.00031   1.95224  -0.00147   0.00147
   0.00000   0.00000   0.00031   0.44166   0.00031  -0.00147   1.95224  -0.00147
   0.00000   0.00000  -0.00031   0.00031   0.44166   0.00147  -0.00147   1.95224
 
 
 Augmentation waves occupancies Rhoij:
 Atom #  1 - Spin component 1
   0.39931   0.00280   0.00000   0.00000   0.00000   0.00000   0.00000   0.00000   0.00033  -0.00033   0.00000  -0.00033 ...
   0.00280   0.00003   0.00000   0.00000   0.00000   0.00000   0.00000   0.00000  -0.00001   0.00001   0.00000   0.00001 ...
   0.00000   0.00000   0.49500  -0.00032   0.00032   0.00133   0.00000   0.00000   0.00000   0.00000   0.00000   0.00000 ...
   0.00000   0.00000  -0.00032   0.49500  -0.00032   0.00000   0.00133   0.00000   0.00000   0.00000   0.00000   0.00000 ...
   0.00000   0.00000   0.00032  -0.00032   0.49500   0.00000   0.00000   0.00133   0.00000   0.00000   0.00000   0.00000 ...
   0.00000   0.00000   0.00133   0.00000   0.00000   0.00000   0.00000   0.00000   0.00000   0.00000   0.00000   0.00000 ...
   0.00000   0.00000   0.00000   0.00133   0.00000   0.00000   0.00000   0.00000   0.00000   0.00000   0.00000   0.00000 ...
   0.00000   0.00000   0.00000   0.00000   0.00133   0.00000   0.00000   0.00000   0.00000   0.00000   0.00000   0.00000 ...
   0.00033  -0.00001   0.00000   0.00000   0.00000   0.00000   0.00000   0.00000   0.99981  -0.00009   0.00488  -0.00009 ...
  -0.00033   0.00001   0.00000   0.00000   0.00000   0.00000   0.00000   0.00000  -0.00009   0.99981   0.00244   0.00009 ...
   0.00000   0.00000   0.00000   0.00000   0.00000   0.00000   0.00000   0.00000   0.00488   0.00244   0.74228   0.00244 ...
  -0.00033   0.00001   0.00000   0.00000   0.00000   0.00000   0.00000   0.00000  -0.00009   0.00009   0.00244   0.99981 ...
   ...  only 12  components have been written...
 Atom #  1 - Spin component 2
   0.39936   0.00280   0.00000   0.00000   0.00000   0.00000   0.00000   0.00000   0.00019  -0.00019   0.00000  -0.00019 ...
   0.00280   0.00003   0.00000   0.00000   0.00000   0.00000   0.00000   0.00000   0.00001  -0.00001   0.00000  -0.00001 ...
   0.00000   0.00000   0.50251   0.00342  -0.00342   0.00133   0.00000   0.00000   0.00000   0.00000   0.00000   0.00000 ...
   0.00000   0.00000   0.00342   0.50251   0.00342   0.00000   0.00133   0.00000   0.00000   0.00000   0.00000   0.00000 ...
   0.00000   0.00000  -0.00342   0.00342   0.50251   0.00000   0.00000   0.00133   0.00000   0.00000   0.00000   0.00000 ...
   0.00000   0.00000   0.00133   0.00000   0.00000   0.00000   0.00000   0.00000   0.00000   0.00000   0.00000   0.00000 ...
   0.00000   0.00000   0.00000   0.00133   0.00000   0.00000   0.00000   0.00000   0.00000   0.00000   0.00000   0.00000 ...
   0.00000   0.00000   0.00000   0.00000   0.00133   0.00000   0.00000   0.00000   0.00000   0.00000   0.00000   0.00000 ...
   0.00019   0.00001   0.00000   0.00000   0.00000   0.00000   0.00000   0.00000   0.99994  -0.00002  -0.00243  -0.00002 ...
  -0.00019  -0.00001   0.00000   0.00000   0.00000   0.00000   0.00000   0.00000  -0.00002   0.99994  -0.00122   0.00002 ...
   0.00000   0.00000   0.00000   0.00000   0.00000   0.00000   0.00000   0.00000  -0.00243  -0.00122   0.70770  -0.00122 ...
  -0.00019  -0.00001   0.00000   0.00000   0.00000   0.00000   0.00000   0.00000  -0.00002   0.00002  -0.00122   0.99994 ...
   ...  only 12  components have been written...
 Atom #  4 - Spin component 1
   0.96384   0.00609   0.00196  -0.00196   0.00196  -0.00002   0.00002  -0.00002
   0.00609   0.00050  -0.00030   0.00030  -0.00030   0.00000   0.00000   0.00000
   0.00196  -0.00030   0.86693  -0.00349   0.00349   0.01843   0.00002  -0.00002
  -0.00196   0.00030  -0.00349   0.86693  -0.00349   0.00002   0.01843   0.00002
   0.00196  -0.00030   0.00349  -0.00349   0.86693  -0.00002   0.00002   0.01843
  -0.00002   0.00000   0.01843   0.00002  -0.00002   0.00047   0.00000   0.00000
   0.00002   0.00000   0.00002   0.01843   0.00002   0.00000   0.00047   0.00000
  -0.00002   0.00000  -0.00002   0.00002   0.01843   0.00000   0.00000   0.00047
 Atom #  4 - Spin component 2
   0.96384   0.00609  -0.00196   0.00196  -0.00196   0.00002  -0.00002   0.00002
   0.00609   0.00050   0.00030  -0.00030   0.00030   0.00000   0.00000   0.00000
  -0.00196   0.00030   0.86693  -0.00349   0.00349   0.01843   0.00002  -0.00002
   0.00196  -0.00030  -0.00349   0.86693  -0.00349   0.00002   0.01843   0.00002
  -0.00196   0.00030   0.00349  -0.00349   0.86693  -0.00002   0.00002   0.01843
   0.00002   0.00000   0.01843   0.00002  -0.00002   0.00047   0.00000   0.00000
  -0.00002   0.00000   0.00002   0.01843   0.00002   0.00000   0.00047   0.00000
   0.00002   0.00000  -0.00002   0.00002   0.01843   0.00000   0.00000   0.00047
 
 "PAW+U" part of augmentation waves occupancies Rhoij:
 Atom #  1 - L=2 ONLY - Spin component 1
   0.99981  -0.00009   0.00488  -0.00009   0.00000  -0.00223   0.00003  -0.00025   0.00003   0.00000
  -0.00009   0.99981   0.00244   0.00009  -0.00423   0.00003  -0.00223  -0.00013  -0.00003   0.00022
   0.00488   0.00244   0.74228   0.00244   0.00000  -0.00023  -0.00011   0.00853  -0.00011   0.00000
  -0.00009   0.00009   0.00244   0.99981   0.00423   0.00003  -0.00003  -0.00013  -0.00223  -0.00022
   0.00000  -0.00423   0.00000   0.00423   0.74228   0.00000   0.00020   0.00000  -0.00020   0.00853
  -0.00223   0.00003  -0.00023   0.00003   0.00000   0.00049   0.00000   0.00001   0.00000   0.00000
   0.00003  -0.00223  -0.00011  -0.00003   0.00020   0.00000   0.00049   0.00000   0.00000  -0.00001
  -0.00025  -0.00013   0.00853  -0.00013   0.00000   0.00001   0.00000   0.00145   0.00000   0.00000
   0.00003  -0.00003  -0.00011  -0.00223  -0.00020   0.00000   0.00000   0.00000   0.00049   0.00001
   0.00000   0.00022   0.00000  -0.00022   0.00853   0.00000  -0.00001   0.00000   0.00001   0.00145
 Atom #  1 - L=2 ONLY - Spin component 2
   0.99994  -0.00002  -0.00243  -0.00002   0.00000  -0.00226   0.00002   0.00018   0.00002   0.00000
  -0.00002   0.99994  -0.00122   0.00002   0.00211   0.00002  -0.00226   0.00009  -0.00002  -0.00016
  -0.00243  -0.00122   0.70770  -0.00122   0.00000   0.00001   0.00001   0.01007   0.00001   0.00000
  -0.00002   0.00002  -0.00122   0.99994  -0.00211   0.00002  -0.00002   0.00009  -0.00226   0.00016
   0.00000   0.00211   0.00000  -0.00211   0.70770   0.00000  -0.00001   0.00000   0.00001   0.01007
  -0.00226   0.00002   0.00001   0.00002   0.00000   0.00049   0.00000   0.00000   0.00000   0.00000
   0.00002  -0.00226   0.00001  -0.00002  -0.00001   0.00000   0.00049   0.00000   0.00000   0.00000
   0.00018   0.00009   0.01007   0.00009   0.00000   0.00000   0.00000   0.00138   0.00000   0.00000
   0.00002  -0.00002   0.00001  -0.00226   0.00001   0.00000   0.00000   0.00000   0.00049   0.00000
   0.00000  -0.00016   0.00000   0.00016   0.01007   0.00000   0.00000   0.00000   0.00000   0.00138
 Atom #  2 - L=2 ONLY - Spin component 1
   0.99994  -0.00002  -0.00243  -0.00002   0.00000  -0.00226   0.00002   0.00018   0.00002   0.00000
  -0.00002   0.99994  -0.00122   0.00002   0.00211   0.00002  -0.00226   0.00009  -0.00002  -0.00016
  -0.00243  -0.00122   0.70770  -0.00122   0.00000   0.00001   0.00001   0.01007   0.00001   0.00000
  -0.00002   0.00002  -0.00122   0.99994  -0.00211   0.00002  -0.00002   0.00009  -0.00226   0.00016
   0.00000   0.00211   0.00000  -0.00211   0.70770   0.00000  -0.00001   0.00000   0.00001   0.01007
  -0.00226   0.00002   0.00001   0.00002   0.00000   0.00049   0.00000   0.00000   0.00000   0.00000
   0.00002  -0.00226   0.00001  -0.00002  -0.00001   0.00000   0.00049   0.00000   0.00000   0.00000
   0.00018   0.00009   0.01007   0.00009   0.00000   0.00000   0.00000   0.00138   0.00000   0.00000
   0.00002  -0.00002   0.00001  -0.00226   0.00001   0.00000   0.00000   0.00000   0.00049   0.00000
   0.00000  -0.00016   0.00000   0.00016   0.01007   0.00000   0.00000   0.00000   0.00000   0.00138
 Atom #  2 - L=2 ONLY - Spin component 2
   0.99981  -0.00009   0.00488  -0.00009   0.00000  -0.00223   0.00003  -0.00025   0.00003   0.00000
  -0.00009   0.99981   0.00244   0.00009  -0.00423   0.00003  -0.00223  -0.00013  -0.00003   0.00022
   0.00488   0.00244   0.74228   0.00244   0.00000  -0.00023  -0.00011   0.00853  -0.00011   0.00000
  -0.00009   0.00009   0.00244   0.99981   0.00423   0.00003  -0.00003  -0.00013  -0.00223  -0.00022
   0.00000  -0.00423   0.00000   0.00423   0.74228   0.00000   0.00020   0.00000  -0.00020   0.00853
  -0.00223   0.00003  -0.00023   0.00003   0.00000   0.00049   0.00000   0.00001   0.00000   0.00000
   0.00003  -0.00223  -0.00011  -0.00003   0.00020   0.00000   0.00049   0.00000   0.00000  -0.00001
  -0.00025  -0.00013   0.00853  -0.00013   0.00000   0.00001   0.00000   0.00145   0.00000   0.00000
   0.00003  -0.00003  -0.00011  -0.00223  -0.00020   0.00000   0.00000   0.00000   0.00049   0.00001
   0.00000   0.00022   0.00000  -0.00022   0.00853   0.00000  -0.00001   0.00000   0.00001   0.00145
 
---------- LDA+U DATA ---------------------------------------------------

====== For Atom    1, occupations for correlated orbitals. lpawu =   2

Atom   1. Occ. for lpawu and for spin  1 =   3.84353
Atom   1. Occ. for lpawu and for spin  2 =   3.84278
=> On atom   1,  local Mag. for lpawu is    -0.74647748E-03

== Occupation matrix for correlated orbitals:

Occupation matrix for spin  1
     0.89077   -0.00024    0.00576   -0.00024    0.00000
    -0.00024    0.89077    0.00288    0.00024   -0.00498
     0.00576    0.00288    0.58562    0.00288    0.00000
    -0.00024    0.00024    0.00288    0.89077    0.00498
     0.00000   -0.00498    0.00000    0.00498    0.58562


Occupation matrix for spin  2
     0.89103   -0.00014   -0.00219   -0.00014    0.00000
    -0.00014    0.89103   -0.00110    0.00014    0.00190
    -0.00219   -0.00110    0.58485   -0.00110    0.00000
    -0.00014    0.00014   -0.00110    0.89103   -0.00190
     0.00000    0.00190    0.00000   -0.00190    0.58485


====== For Atom    2, occupations for correlated orbitals. lpawu =   2

Atom   2. Occ. for lpawu and for spin  1 =   3.84278
Atom   2. Occ. for lpawu and for spin  2 =   3.84353
=> On atom   2,  local Mag. for lpawu is     0.74647748E-03

== Occupation matrix for correlated orbitals:

Occupation matrix for spin  1
     0.89103   -0.00014   -0.00219   -0.00014    0.00000
    -0.00014    0.89103   -0.00110    0.00014    0.00190
    -0.00219   -0.00110    0.58485   -0.00110    0.00000
    -0.00014    0.00014   -0.00110    0.89103   -0.00190
     0.00000    0.00190    0.00000   -0.00190    0.58485


Occupation matrix for spin  2
     0.89077   -0.00024    0.00576   -0.00024    0.00000
    -0.00024    0.89077    0.00288    0.00024   -0.00498
     0.00576    0.00288    0.58562    0.00288    0.00000
    -0.00024    0.00024    0.00288    0.89077    0.00498
     0.00000   -0.00498    0.00000    0.00498    0.58562


 
================================================================================

 ----iterations are completed or convergence reached----

 Mean square residual over all n,k,spin=   5.5163E-07; max=  6.1930E-05
   0.1667  0.1667  0.1667    1  6.19302E-05 kpt; spin; max resid(k); each band:
 7.60E-11 3.37E-10 2.14E-08 3.78E-08 7.46E-08 2.03E-08 4.91E-08 3.80E-08
 4.80E-09 1.37E-08 6.84E-08 5.41E-08 6.27E-08 7.14E-09 1.07E-07 1.11E-07
 1.24E-07 1.03E-07 5.39E-09 2.07E-09 5.55E-09 1.17E-08 3.71E-08 1.09E-10
 1.41E-08 2.26E-08 1.75E-08 1.92E-08 2.98E-08 1.54E-08 3.07E-08 2.00E-08
 1.60E-08 2.50E-08 1.08E-09 2.41E-08 9.85E-09 1.02E-08 4.26E-09 6.19E-05
   0.5000  0.1667  0.1667    1  1.45339E-07 kpt; spin; max resid(k); each band:
 6.36E-10 4.80E-09 1.25E-08 6.80E-09 2.94E-08 3.99E-08 7.87E-08 3.05E-08
 5.02E-08 1.06E-08 6.51E-09 1.45E-08 2.02E-08 2.34E-08 1.45E-07 5.56E-08
 9.84E-08 1.14E-07 1.15E-08 3.66E-10 9.69E-09 4.25E-09 1.40E-08 6.00E-09
 1.16E-09 1.36E-09 2.05E-08 1.32E-08 2.80E-08 1.97E-08 1.59E-08 4.34E-09
 9.55E-10 1.40E-08 5.96E-09 9.76E-09 1.68E-08 4.09E-09 1.03E-08 3.98E-08
  -0.1667  0.1667  0.1667    1  4.33688E-07 kpt; spin; max resid(k); each band:
 1.28E-10 6.24E-10 1.28E-08 1.87E-08 2.46E-08 8.70E-08 3.87E-08 7.43E-08
 2.02E-08 3.86E-08 2.58E-08 8.53E-09 1.88E-08 1.40E-07 9.78E-08 7.10E-08
 6.71E-08 7.51E-08 1.23E-08 3.00E-09 5.30E-09 1.14E-08 7.78E-09 9.02E-09
 2.46E-09 6.04E-09 1.90E-08 2.53E-08 2.68E-08 1.55E-08 1.40E-08 2.72E-08
 6.98E-09 8.49E-09 9.45E-09 8.89E-09 1.26E-08 2.27E-08 5.19E-09 4.34E-07
   0.5000  0.5000  0.1667    1  2.30797E-05 kpt; spin; max resid(k); each band:
 1.88E-10 4.22E-09 7.97E-09 6.90E-09 7.62E-08 4.81E-08 5.28E-08 5.70E-09
 3.58E-08 1.01E-08 5.28E-08 1.07E-08 6.00E-09 3.41E-08 3.50E-08 6.20E-08
 1.06E-07 8.74E-08 1.03E-09 6.36E-10 4.91E-09 6.71E-10 1.33E-08 2.80E-09
 1.43E-10 2.32E-10 5.36E-09 2.00E-08 3.69E-08 2.39E-08 2.75E-09 1.27E-08
 3.61E-09 5.46E-09 1.38E-08 8.88E-09 3.77E-08 3.92E-09 1.04E-08 2.31E-05
  -0.1667  0.5000  0.1667    1  2.25783E-05 kpt; spin; max resid(k); each band:
 3.40E-09 5.49E-10 1.09E-08 1.10E-08 3.92E-08 8.08E-08 7.85E-08 3.07E-08
 1.81E-08 6.15E-08 3.49E-09 1.57E-08 3.65E-08 2.24E-08 4.66E-08 6.77E-08
 9.61E-08 7.69E-08 2.30E-09 1.26E-08 4.58E-09 3.42E-09 1.01E-08 6.02E-09
 5.78E-10 1.26E-09 2.23E-08 9.90E-09 2.46E-08 2.58E-08 1.11E-08 2.04E-09
 1.78E-08 1.38E-08 1.79E-08 1.33E-08 6.19E-09 6.65E-09 1.28E-08 2.26E-05
  -0.1667 -0.1667  0.1667    1  4.19127E-05 kpt; spin; max resid(k); each band:
 1.55E-10 3.79E-10 1.84E-08 6.09E-08 2.94E-08 1.12E-07 2.76E-08 4.84E-08
 3.45E-08 4.86E-08 3.84E-09 1.38E-08 2.84E-08 4.43E-08 1.23E-07 1.43E-07
 1.18E-07 1.16E-07 2.06E-08 3.59E-09 2.10E-08 5.46E-09 2.74E-08 9.05E-09
 2.93E-09 3.65E-09 1.81E-08 3.58E-08 8.35E-09 3.28E-08 1.64E-08 2.33E-08
 2.41E-08 2.55E-08 7.86E-10 1.23E-08 8.63E-09 5.22E-08 2.41E-08 4.19E-05
   0.1667  0.1667  0.5000    1  1.00653E-05 kpt; spin; max resid(k); each band:
 7.56E-11 8.71E-10 1.60E-08 4.14E-08 8.27E-08 4.27E-08 1.86E-08 3.34E-08
 2.79E-08 2.83E-08 8.66E-09 4.46E-09 4.34E-08 1.70E-08 1.09E-07 1.32E-07
 1.02E-07 1.29E-07 4.07E-09 2.85E-09 1.00E-08 1.07E-08 2.28E-08 1.20E-09
 1.61E-08 1.20E-08 2.60E-08 3.83E-08 2.06E-09 2.33E-08 2.22E-08 2.11E-08
 1.28E-08 4.39E-09 1.81E-08 2.68E-10 2.31E-08 6.54E-09 7.17E-10 1.01E-05
   0.5000  0.1667  0.5000    1  3.83982E-07 kpt; spin; max resid(k); each band:
 4.30E-10 5.27E-09 2.83E-08 6.54E-09 2.18E-08 1.43E-08 4.18E-08 8.07E-08
 4.56E-09 4.80E-08 2.51E-08 2.01E-08 1.16E-08 1.62E-07 7.77E-08 3.92E-08
 9.17E-08 1.09E-07 1.10E-08 3.09E-09 6.77E-09 8.56E-09 1.29E-08 6.06E-09
 2.79E-09 1.98E-09 2.14E-08 2.54E-08 2.04E-08 1.86E-08 1.28E-08 5.76E-09
 1.20E-08 7.85E-09 1.04E-08 7.20E-09 1.04E-09 1.25E-08 7.75E-09 3.84E-07
  -0.1667  0.1667  0.5000    1  3.67507E-05 kpt; spin; max resid(k); each band:
 3.07E-10 2.75E-09 2.63E-08 5.60E-09 1.15E-07 1.44E-08 7.08E-08 5.69E-08
 1.80E-08 2.01E-08 8.55E-09 6.60E-09 1.76E-08 1.47E-08 7.37E-08 1.02E-07
 1.00E-07 7.57E-08 1.01E-09 2.73E-08 5.76E-09 1.29E-08 1.77E-08 2.11E-08
 4.97E-09 8.05E-09 7.48E-09 7.71E-09 2.25E-08 1.46E-08 1.38E-08 3.75E-09
 1.29E-08 1.65E-08 3.36E-09 1.29E-08 3.07E-08 1.56E-08 1.12E-05 3.68E-05
   0.5000  0.5000  0.5000    1  1.52263E-06 kpt; spin; max resid(k); each band:
 5.22E-09 6.46E-10 5.27E-08 7.85E-09 4.26E-08 9.04E-09 3.39E-08 8.19E-08
 8.86E-09 3.15E-08 7.81E-08 3.64E-08 1.40E-08 7.71E-09 4.44E-08 5.33E-08
 2.83E-08 4.03E-08 1.16E-09 9.60E-09 3.38E-09 6.34E-09 8.11E-09 6.95E-09
 1.52E-10 2.11E-09 3.87E-08 1.12E-08 1.68E-08 1.47E-08 1.53E-08 1.59E-08
 1.06E-08 1.89E-09 1.10E-08 3.19E-08 2.32E-08 2.62E-09 1.52E-06 4.71E-07
 reduced coordinates (array xred) for    4 atoms
       0.000000000000      0.000000000000      0.000000000000
       0.000000000000      0.000000000000      0.500000000000
       0.500000000000      0.500000000000      0.250000000000
       0.500000000000      0.500000000000      0.750000000000
 rms dE/dt=  0.0000E+00; max dE/dt=  0.0000E+00; dE/dt below (all hartree)
    1       0.000000000000      0.000000000000      0.000000000000
    2       0.000000000000      0.000000000000      0.000000000000
    3       0.000000000000      0.000000000000      0.000000000000
    4       0.000000000000      0.000000000000      0.000000000000
 
 cartesian coordinates (angstrom) at end:
    1      0.00000000000000     0.00000000000000     0.00000000000000
    2      2.09554174601640     2.09554174601640     0.00000000000000
    3      2.09554174601640     2.09554174601640     2.09554174601640
    4      4.19108349203280     4.19108349203280     2.09554174601640

 cartesian forces (hartree/bohr) at end:
    1      0.00000000000000     0.00000000000000     0.00000000000000
    2      0.00000000000000     0.00000000000000     0.00000000000000
    3      0.00000000000000     0.00000000000000     0.00000000000000
    4      0.00000000000000     0.00000000000000     0.00000000000000
 frms,max,avg= 0.0000000E+00 0.0000000E+00   0.000E+00  0.000E+00  0.000E+00 h/b

 cartesian forces (eV/Angstrom) at end:
    1      0.00000000000000     0.00000000000000     0.00000000000000
    2      0.00000000000000     0.00000000000000     0.00000000000000
    3      0.00000000000000     0.00000000000000     0.00000000000000
    4      0.00000000000000     0.00000000000000     0.00000000000000
 frms,max,avg= 0.0000000E+00 0.0000000E+00   0.000E+00  0.000E+00  0.000E+00 e/A
 length scales=  7.920000000000  7.920000000000  7.920000000000 bohr
              =  4.191083492033  4.191083492033  4.191083492033 angstroms
 prteigrs : about to open file tldau_2o_EIG
 Fermi (or HOMO) energy (hartree) =   0.31030   Average Vxc (hartree)=  -0.47967
 Eigenvalues (hartree) for nkpt=  10  k points:
 kpt#   1, nband= 40, wtk=  0.07407, kpt=  0.1667  0.1667  0.1667 (reduced coord)
  -0.41833  -0.37606   0.02013   0.09542   0.10927   0.12510   0.15225   0.15361
   0.17288   0.20150   0.20422   0.20462   0.20726   0.22000   0.26253   0.28746
   0.31745   0.34527   0.42678   0.56797   0.66026   0.75738   0.84674   0.84716
   0.94428   0.94864   1.00730   1.10923   1.12912   1.18082   1.19885   1.21594
   1.24145   1.32139   1.36882   1.39204   1.41821   1.42792   1.53729   1.60724
 kpt#   2, nband= 40, wtk=  0.14815, kpt=  0.5000  0.1667  0.1667 (reduced coord)
  -0.37962  -0.37394   0.02254   0.05954   0.09963   0.10081   0.11143   0.12570
   0.18220   0.19633   0.20659   0.20736   0.21147   0.21989   0.27941   0.29598
   0.31843   0.34495   0.55126   0.57780   0.67206   0.68836   0.72220   0.77686
   0.84834   0.87328   0.97934   1.10916   1.19106   1.23493   1.28735   1.37010
   1.38311   1.38884   1.44379   1.47235   1.47599   1.58019   1.66375   1.68268
 kpt#   3, nband= 40, wtk=  0.14815, kpt= -0.1667  0.1667  0.1667 (reduced coord)
  -0.40024  -0.37514   0.04779   0.07048   0.08911   0.11227   0.12272   0.13143
   0.17989   0.19384   0.20689   0.20824   0.21763   0.21923   0.27834   0.28611
   0.32512   0.32595   0.49726   0.60849   0.66776   0.71467   0.75771   0.82016
   0.84836   0.91012   1.01897   1.07002   1.17406   1.17521   1.21715   1.38442
   1.38745   1.41287   1.42617   1.44514   1.45765   1.48220   1.49500   1.58700
 kpt#   4, nband= 40, wtk=  0.07407, kpt=  0.5000  0.5000  0.1667 (reduced coord)
  -0.37756  -0.37569   0.00791   0.05644   0.10273   0.10673   0.12442   0.14526
   0.16235   0.20237   0.20511   0.20835   0.20925   0.22185   0.26865   0.28508
   0.34475   0.34681   0.53146   0.55014   0.66893   0.69097   0.74876   0.80322
   0.83242   0.91021   0.92399   1.11962   1.19270   1.25088   1.31577   1.36448
   1.37070   1.39398   1.39409   1.48358   1.49270   1.59175   1.64171   1.71490
 kpt#   5, nband= 40, wtk=  0.14815, kpt= -0.1667  0.5000  0.1667 (reduced coord)
  -0.37869  -0.37490   0.03122   0.05130   0.09124   0.10488   0.11279   0.12580
   0.17969   0.19817   0.20416   0.21055   0.21640   0.21837   0.28106   0.30858
   0.30887   0.33034   0.57467   0.59540   0.65144   0.68890   0.73357   0.73705
   0.85210   0.87751   0.98267   1.08308   1.19091   1.28493   1.32120   1.37746
   1.39536   1.42436   1.43913   1.45313   1.45933   1.47318   1.60980   1.71702
 kpt#   6, nband= 40, wtk=  0.07407, kpt= -0.1667 -0.1667  0.1667 (reduced coord)
  -0.40599  -0.39098   0.05083   0.08656   0.10816   0.11871   0.13744   0.14376
   0.16826   0.18759   0.20970   0.21487   0.21731   0.22260   0.26456   0.28322
   0.29940   0.34705   0.48468   0.52636   0.72272   0.77621   0.80118   0.84284
   0.88731   0.91624   0.95376   1.08153   1.17097   1.20331   1.22375   1.25937
   1.34709   1.36682   1.37500   1.42849   1.43324   1.48219   1.51090   1.57159
 kpt#   7, nband= 40, wtk=  0.07407, kpt=  0.1667  0.1667  0.5000 (reduced coord)
  -0.41158  -0.38458   0.03803   0.10004   0.10513   0.12103   0.13746   0.14336
   0.17997   0.18736   0.19811   0.20901   0.21159   0.21722   0.27469   0.31030
   0.31147   0.32669   0.45120   0.54654   0.69011   0.77855   0.79811   0.86799
   0.88699   0.95830   1.03582   1.04670   1.08731   1.16082   1.23950   1.27862
   1.31519   1.35800   1.37236   1.41149   1.43802   1.45443   1.49633   1.60172
 kpt#   8, nband= 40, wtk=  0.14815, kpt=  0.5000  0.1667  0.5000 (reduced coord)
  -0.38162  -0.37216   0.04064   0.06467   0.08242   0.09695   0.10806   0.11447
   0.19027   0.19792   0.20586   0.21067   0.21186   0.22324   0.28089   0.28608
   0.30973   0.34436   0.56831   0.61804   0.68156   0.69315   0.70284   0.73435
   0.82652   0.86713   1.06658   1.08045   1.17141   1.18766   1.26382   1.38596
   1.41655   1.45494   1.45632   1.47122   1.47860   1.54857   1.59287   1.66154
 kpt#   9, nband= 40, wtk=  0.07407, kpt= -0.1667  0.1667  0.5000 (reduced coord)
  -0.38807  -0.38807   0.05249   0.05295   0.11162   0.11219   0.12615   0.12620
   0.17926   0.17945   0.21160   0.21205   0.22083   0.22089   0.28030   0.28061
   0.32258   0.32271   0.54583   0.54586   0.72065   0.72071   0.75851   0.75853
   0.88610   0.88610   0.99431   0.99435   1.26874   1.26877   1.29896   1.29899
   1.39345   1.39345   1.44004   1.44007   1.46988   1.46990   1.57781   1.57816
 kpt#  10, nband= 40, wtk=  0.03704, kpt=  0.5000  0.5000  0.5000 (reduced coord)
  -0.37682  -0.37682   0.04160   0.04180   0.09418   0.09485   0.12187   0.12266
   0.18654   0.18728   0.20687   0.20806   0.21655   0.21660   0.30853   0.30863
   0.30896   0.30899   0.58456   0.58459   0.66717   0.66721   0.73437   0.73439
   0.87535   0.87546   1.00976   1.00983   1.28215   1.28222   1.34458   1.34459
   1.37448   1.37455   1.43419   1.43425   1.46289   1.46292   1.72141   1.72153
 Total charge density [el/Bohr^3]
,     Maximum=    1.6397E+00  at reduced coord.    0.0000    0.0000    0.5000
,Next maximum=    1.6397E+00  at reduced coord.    0.0000    0.0000    0.0000
,     Minimum=    1.0857E-02  at reduced coord.    0.2333    0.2333    0.1333
,Next minimum=    1.0857E-02  at reduced coord.    0.2667    0.2333    0.1333
 Spin up density      [el/Bohr^3]
,     Maximum=    8.2953E-01  at reduced coord.    0.0000    0.0000    0.0000
,Next maximum=    8.1012E-01  at reduced coord.    0.0000    0.0000    0.5000
,     Minimum=    5.4007E-03  at reduced coord.    0.2667    0.2333    0.1167
,Next minimum=    5.4007E-03  at reduced coord.    0.2333    0.2667    0.1167
 Spin down density    [el/Bohr^3]
,     Maximum=    8.2953E-01  at reduced coord.    0.0000    0.0000    0.5000
,Next maximum=    8.1012E-01  at reduced coord.    0.0000    0.0000    0.0000
,     Minimum=    5.4007E-03  at reduced coord.    0.7333    0.7333    0.3833
,Next minimum=    5.4007E-03  at reduced coord.    0.7667    0.7333    0.3833
 Magnetization (spin up - spin down) [el/Bohr^3]
,     Maximum=    1.9413E-02  at reduced coord.    0.0000    0.0000    0.0000
,Next maximum=    1.8851E-02  at reduced coord.    0.0333    0.9667    0.0000
,     Minimum=   -1.9413E-02  at reduced coord.    0.0000    0.0000    0.5000
,Next minimum=   -1.8851E-02  at reduced coord.    0.0333    0.0000    0.5000
 Relative magnetization (=zeta, between -1 and 1)
,     Maximum=    2.5837E-02  at reduced coord.    0.2000    0.8000    0.9167
,Next maximum=    2.5837E-02  at reduced coord.    0.1667    0.8000    0.9167
,     Minimum=   -2.5837E-02  at reduced coord.    0.2000    0.1667    0.4167
,Next minimum=   -2.5837E-02  at reduced coord.    0.8000    0.1667    0.4167

--------------------------------------------------------------------------------
 Components of total free energy (in Hartree) :

    Kinetic energy  =  2.36504026879864E+01
    Hartree energy  =  2.05044958584760E+01
    XC energy       = -1.88955186803599E+01
    Ewald energy    = -9.52410591238850E+01
    PspCore energy  =  3.88968900772322E+00
    Loc. psp. energy= -8.18894517353975E+01
    Spherical terms =  3.62482571927315E+01
    >>>>>>>>> Etotal= -1.11733184792725E+02

 "Double-counting" decomposition of free energy:
    Band energy     =  3.17186891682725E+00
    Ewald energy    = -9.52410591238850E+01
    PspCore energy  =  3.88968900772322E+00
    Dble-C XC-energy= -1.49994719431248E+01
    Spherical terms = -8.55470431715625E+00
    >>>> Etotal (DC)= -1.11733677459616E+02

  >Total energy in eV           = -3.04041458129516E+03
   >Total DC energy in eV        = -3.04042798744303E+03
--------------------------------------------------------------------------------

 Cartesian components of stress tensor (hartree/bohr^3)
  sigma(1 1)=  1.25788711E-03  sigma(3 2)= -1.24379335E-05
  sigma(2 2)=  1.25788711E-03  sigma(3 1)= -1.24379335E-05
  sigma(3 3)=  1.25788711E-03  sigma(2 1)=  1.24379335E-05

-Cartesian components of stress tensor (GPa)         [Pressure= -3.7008E+01 GPa]
- sigma(1 1)=  3.70083103E+01  sigma(3 2)= -3.65936574E-01
- sigma(2 2)=  3.70083103E+01  sigma(3 1)= -3.65936574E-01
- sigma(3 3)=  3.70083103E+01  sigma(2 1)=  3.65936574E-01

== END DATASET(S) ==============================================================
================================================================================
  
 -outvars: echo values of variables after computation  --------
     acell    7.9200000000E+00  7.9200000000E+00  7.9200000000E+00 Bohr
       amu    5.86900000E+01  1.59994000E+01
      ecut    1.50000000E+01 Hartree
    etotal   -1.1173367746E+02
     fcart    0.0000000000E+00  0.0000000000E+00  0.0000000000E+00
              0.0000000000E+00  0.0000000000E+00  0.0000000000E+00
              0.0000000000E+00  0.0000000000E+00  0.0000000000E+00
              0.0000000000E+00  0.0000000000E+00  0.0000000000E+00
    istwfk      0    0    0    0    0    0    0    0    0    9
       ixc         7
       kpt    1.66666667E-01  1.66666667E-01  1.66666667E-01
              5.00000000E-01  1.66666667E-01  1.66666667E-01
             -1.66666667E-01  1.66666667E-01  1.66666667E-01
              5.00000000E-01  5.00000000E-01  1.66666667E-01
             -1.66666667E-01  5.00000000E-01  1.66666667E-01
             -1.66666667E-01 -1.66666667E-01  1.66666667E-01
              1.66666667E-01  1.66666667E-01  5.00000000E-01
              5.00000000E-01  1.66666667E-01  5.00000000E-01
             -1.66666667E-01  1.66666667E-01  5.00000000E-01
              5.00000000E-01  5.00000000E-01  5.00000000E-01
   kptrlen    1.68008571E+01
    kptopt         1
  kptrlatt    3  0  0   0  3  0   0  0  3
P    mkmem        10
     natom         4
     nband        40
     ngfft        20      20      40
   ngfftdg        30      30      60
      nkpt        10
    nspden         2
     nstep        50
      nsym        24
    ntypat         2
       occ    2.000000  2.000000  2.000000  2.000000  2.000000  2.000000
              2.000000  2.000000  2.000000  2.000000  2.000000  2.000000
              2.000000  2.000000  2.000000  2.000000  0.000000  0.000000
              0.000000  0.000000  0.000000  0.000000  0.000000  0.000000
              0.000000  0.000000  0.000000  0.000000  0.000000  0.000000
              0.000000  0.000000  0.000000  0.000000  0.000000  0.000000
              0.000000  0.000000  0.000000  0.000000
 pawecutdg    3.00000000E+01 Hartree
   usepawu         1
     jpawu    2.93994603E-02  0.00000000E+00
     lpawu         2      -1
     upawu    2.93994603E-01  0.00000000E+00
 prtdensph         1
    ratsph    2.31080032E+00 Bohr
     rprim    0.0000000000E+00  5.0000000000E-01  5.0000000000E-01
              5.0000000000E-01  0.0000000000E+00  5.0000000000E-01
              1.0000000000E+00  1.0000000000E+00  0.0000000000E+00
    shiftk    5.00000000E-01  5.00000000E-01  5.00000000E-01
   spgroup       166
    spinat    0.0000000000E+00  0.0000000000E+00  1.0000000000E+00
              0.0000000000E+00  0.0000000000E+00 -1.0000000000E+00
              0.0000000000E+00  0.0000000000E+00  0.0000000000E+00
              0.0000000000E+00  0.0000000000E+00  0.0000000000E+00
    strten    1.2578871115E-03  1.2578871115E-03  1.2578871115E-03
             -1.2437933452E-05 -1.2437933452E-05  1.2437933452E-05
    symafm    1 -1  1  -1  1 -1   1 -1  1      -1  1 -1   1 -1  1  -1  1 -1
              1 -1  1  -1  1 -1
    symrel    1  0  0   0  1  0   0  0  1       1  0  0   0  1  0   0  0  1
             -1  0  0   0 -1  0   0  0 -1      -1  0  0   0 -1  0   0  0 -1
              0  1  0   1  0  0   0  0  1       0  1  0   1  0  0   0  0  1
              0 -1  0  -1  0  0   0  0 -1       0 -1  0  -1  0  0   0  0 -1
              0 -1  0   1 -1  0   0 -2  1       0 -1  0   1 -1  0   0 -2  1
              0  1  0  -1  1  0   0  2 -1       0  1  0  -1  1  0   0  2 -1
              1 -1  0   0 -1  0   0 -2  1       1 -1  0   0 -1  0   0 -2  1
             -1  1  0   0  1  0   0  2 -1      -1  1  0   0  1  0   0  2 -1
             -1  1  0  -1  0  0  -2  0  1      -1  1  0  -1  0  0  -2  0  1
              1 -1  0   1  0  0   2  0 -1       1 -1  0   1  0  0   2  0 -1
             -1  0  0  -1  1  0  -2  0  1      -1  0  0  -1  1  0  -2  0  1
              1  0  0   1 -1  0   2  0 -1       1  0  0   1 -1  0   2  0 -1
     tnons    0.0000000  0.0000000  0.0000000     0.0000000  0.0000000  0.5000000
              0.0000000  0.0000000  0.0000000     0.0000000  0.0000000  0.5000000
              0.0000000  0.0000000  0.0000000     0.0000000  0.0000000  0.5000000
              0.0000000  0.0000000  0.0000000     0.0000000  0.0000000  0.5000000
              0.0000000  0.0000000  0.0000000     0.0000000  0.0000000  0.5000000
              0.0000000  0.0000000  0.0000000     0.0000000  0.0000000  0.5000000
              0.0000000  0.0000000  0.0000000     0.0000000  0.0000000  0.5000000
              0.0000000  0.0000000  0.0000000     0.0000000  0.0000000  0.5000000
              0.0000000  0.0000000  0.0000000     0.0000000  0.0000000  0.5000000
              0.0000000  0.0000000  0.0000000     0.0000000  0.0000000  0.5000000
              0.0000000  0.0000000  0.0000000     0.0000000  0.0000000  0.5000000
              0.0000000  0.0000000  0.0000000     0.0000000  0.0000000  0.5000000
    toldfe    1.00000000E-05 Hartree
     typat    1  1  2  2
    useylm         1
       wtk      0.07407    0.14815    0.14815    0.07407    0.14815    0.07407
                0.07407    0.14815    0.07407    0.03704
    xangst    0.0000000000E+00  0.0000000000E+00  0.0000000000E+00
              2.0955417460E+00  2.0955417460E+00  0.0000000000E+00
              2.0955417460E+00  2.0955417460E+00  2.0955417460E+00
              4.1910834920E+00  4.1910834920E+00  2.0955417460E+00
     xcart    0.0000000000E+00  0.0000000000E+00  0.0000000000E+00
              3.9600000000E+00  3.9600000000E+00  0.0000000000E+00
              3.9600000000E+00  3.9600000000E+00  3.9600000000E+00
              7.9200000000E+00  7.9200000000E+00  3.9600000000E+00
      xred    0.0000000000E+00  0.0000000000E+00  0.0000000000E+00
              0.0000000000E+00  0.0000000000E+00  5.0000000000E-01
              5.0000000000E-01  5.0000000000E-01  2.5000000000E-01
              5.0000000000E-01  5.0000000000E-01  7.5000000000E-01
     znucl     28.00000    8.00000

================================================================================

- Total cpu        time (s,m,h):         49.4        0.82      0.014
- Total wall clock time (s,m,h):         49.4        0.82      0.014

- For major independent code sections, cpu and wall times (sec),
- as well as % of the total time and number of calls 

- routine                 cpu     %       wall     %      number of calls 
-                                                          (-1=no count)
- fourwf(pot)           19.316  39.1     19.300  39.1          46256
- nonlop(apply)         11.644  23.6     11.667  23.6          46256
- vtowfk(ssdiag)         4.089   8.3      4.092   8.3             -1
- projbd                 3.985   8.1      4.016   8.1          35456
- pspini                 1.280   2.6      1.280   2.6              1
- xc:pot/=fourdp         1.127   2.3      1.128   2.3            252
- fourwf(den)            0.975   2.0      0.933   1.9           4000
- nonlop(forces)         0.843   1.7      0.878   1.8           4000
- getghc-other           0.758   1.5      0.721   1.5             -1
- pawdenpot              0.646   1.3      0.648   1.3             25
- pawinit                0.501   1.0      0.500   1.0              2
- fourdp                 0.476   1.0      0.475   1.0            525
- forces                 0.461   0.9      0.458   0.9             25
- timing timab           0.364   0.7      0.364   0.7             11
- vtorho:mknhat          0.297   0.6      0.299   0.6             25
- 51   others            1.228   2.5      1.228   2.5

- subtotal              47.990  97.1     47.987  97.1

================================================================================

 Calculation completed.
.Delivered    1 WARNINGs and   0 COMMENTs to log file.
+Overall time at end (sec) : cpu=         49.4  wall=         49.4
