
.Version 5.5.3  of ABINIT 
.(sequential version, prepared for a x86_64_linux_intel9.1 computer) 

.Copyright (C) 1998-2007 ABINIT group . 
 ABINIT comes with ABSOLUTELY NO WARRANTY.
 It is free software, and you are welcome to redistribute it
 under certain conditions (GNU General Public License,
 see ~abinit/COPYING or http://www.gnu.org/copyleft/gpl.txt).

 ABINIT is a project of the Universite Catholique de Louvain,
 Corning Inc. and other collaborators, see ~abinit/doc/developers/contributors.txt .
 Please read ~abinit/doc/users/acknowledgments.html for suggested
 acknowledgments of the ABINIT effort.
 For more information, see http://www.abinit.org .

.Starting date : Thu 22 May 2008.
  
- input  file    -> tldau_1.in
- output file    -> tldau_1.out
- root for input  files -> tldau_1i
- root for output files -> tldau_1o


 Magnetic group, Shubnikov type IV
 Fedorov space group R-3 m (#166)
 Magnetic Bravais lattice hR_I (rhombohedral, centered magnetic, #31)
================================================================================
 Values of the parameters that define the memory need of the present run
   intxc =         0  ionmov =         0    iscf =        17 xclevel =         1
  lmnmax =        18   lnmax =         6   mband =        40  mffmem =         1
P  mgfft =        40   mkmem =        20 mpssoang=         3     mpw =       698
  mqgrid =      3001   natom =         4    nfft =     16000    nkpt =        20
  nloalg =         4  nspden =         2 nspinor =         1  nsppol =         1
    nsym =        24  n1xccc =         1  ntypat =         2  occopt =         1
 PAW method is used; the additional fine FFT grid is defined by:
   mgfftf=        60    nfftf =     54000
================================================================================
P This job should need less than                      47.839 Mbytes of memory.
  Rough estimation (10% accuracy) of disk space for files :
  WF disk file :      8.523 Mbytes ; DEN or POT disk file :      0.414 Mbytes.
================================================================================

 -outvars: echo values of preprocessed input variables --------
     acell    7.9200000000E+00  7.9200000000E+00  7.9200000000E+00 Bohr
       amu    5.86900000E+01  1.59994000E+01
      ecut    1.50000000E+01 Hartree
       ixc         7
       kpt    1.25000000E-01  1.25000000E-01  1.25000000E-01
              3.75000000E-01  1.25000000E-01  1.25000000E-01
             -3.75000000E-01  1.25000000E-01  1.25000000E-01
             -1.25000000E-01  1.25000000E-01  1.25000000E-01
              3.75000000E-01  3.75000000E-01  1.25000000E-01
             -3.75000000E-01  3.75000000E-01  1.25000000E-01
             -1.25000000E-01  3.75000000E-01  1.25000000E-01
             -3.75000000E-01 -3.75000000E-01  1.25000000E-01
             -1.25000000E-01 -3.75000000E-01  1.25000000E-01
             -1.25000000E-01 -1.25000000E-01  1.25000000E-01
              1.25000000E-01  1.25000000E-01  3.75000000E-01
              3.75000000E-01  1.25000000E-01  3.75000000E-01
             -3.75000000E-01  1.25000000E-01  3.75000000E-01
             -1.25000000E-01  1.25000000E-01  3.75000000E-01
              3.75000000E-01  3.75000000E-01  3.75000000E-01
             -3.75000000E-01  3.75000000E-01  3.75000000E-01
             -1.25000000E-01  3.75000000E-01  3.75000000E-01
             -3.75000000E-01 -3.75000000E-01  3.75000000E-01
             -1.25000000E-01 -3.75000000E-01  3.75000000E-01
             -1.25000000E-01 -1.25000000E-01  3.75000000E-01
   kptrlen    2.24011428E+01
    kptopt         1
  kptrlatt    4  0  0   0  4  0   0  0  4
P    mkmem        20
     natom         4
     nband        40
     ngfft        20      20      40
   ngfftdg        30      30      60
      nkpt        20
    nspden         2
     nstep        50
      nsym        24
    ntypat         2
       occ    2.000000  2.000000  2.000000  2.000000  2.000000  2.000000
              2.000000  2.000000  2.000000  2.000000  2.000000  2.000000
              2.000000  2.000000  2.000000  2.000000  0.000000  0.000000
              0.000000  0.000000  0.000000  0.000000  0.000000  0.000000
              0.000000  0.000000  0.000000  0.000000  0.000000  0.000000
              0.000000  0.000000  0.000000  0.000000  0.000000  0.000000
              0.000000  0.000000  0.000000  0.000000
 pawecutdg    3.00000000E+01 Hartree
 prtdensph         1
    ratsph    2.31080032E+00 Bohr
     rprim    0.0000000000E+00  5.0000000000E-01  5.0000000000E-01
              5.0000000000E-01  0.0000000000E+00  5.0000000000E-01
              1.0000000000E+00  1.0000000000E+00  0.0000000000E+00
    shiftk    5.00000000E-01  5.00000000E-01  5.00000000E-01
   spgroup       166
    spinat    0.0000000000E+00  0.0000000000E+00  1.0000000000E+00
              0.0000000000E+00  0.0000000000E+00 -1.0000000000E+00
              0.0000000000E+00  0.0000000000E+00  0.0000000000E+00
              0.0000000000E+00  0.0000000000E+00  0.0000000000E+00
    symafm    1 -1  1  -1  1 -1   1 -1  1      -1  1 -1   1 -1  1  -1  1 -1
              1 -1  1  -1  1 -1
    symrel    1  0  0   0  1  0   0  0  1       1  0  0   0  1  0   0  0  1
             -1  0  0   0 -1  0   0  0 -1      -1  0  0   0 -1  0   0  0 -1
              0  1  0   1  0  0   0  0  1       0  1  0   1  0  0   0  0  1
              0 -1  0  -1  0  0   0  0 -1       0 -1  0  -1  0  0   0  0 -1
              0 -1  0   1 -1  0   0 -2  1       0 -1  0   1 -1  0   0 -2  1
              0  1  0  -1  1  0   0  2 -1       0  1  0  -1  1  0   0  2 -1
              1 -1  0   0 -1  0   0 -2  1       1 -1  0   0 -1  0   0 -2  1
             -1  1  0   0  1  0   0  2 -1      -1  1  0   0  1  0   0  2 -1
             -1  1  0  -1  0  0  -2  0  1      -1  1  0  -1  0  0  -2  0  1
              1 -1  0   1  0  0   2  0 -1       1 -1  0   1  0  0   2  0 -1
             -1  0  0  -1  1  0  -2  0  1      -1  0  0  -1  1  0  -2  0  1
              1  0  0   1 -1  0   2  0 -1       1  0  0   1 -1  0   2  0 -1
     tnons    0.0000000  0.0000000  0.0000000     0.0000000  0.0000000  0.5000000
              0.0000000  0.0000000  0.0000000     0.0000000  0.0000000  0.5000000
              0.0000000  0.0000000  0.0000000     0.0000000  0.0000000  0.5000000
              0.0000000  0.0000000  0.0000000     0.0000000  0.0000000  0.5000000
              0.0000000  0.0000000  0.0000000     0.0000000  0.0000000  0.5000000
              0.0000000  0.0000000  0.0000000     0.0000000  0.0000000  0.5000000
              0.0000000  0.0000000  0.0000000     0.0000000  0.0000000  0.5000000
              0.0000000  0.0000000  0.0000000     0.0000000  0.0000000  0.5000000
              0.0000000  0.0000000  0.0000000     0.0000000  0.0000000  0.5000000
              0.0000000  0.0000000  0.0000000     0.0000000  0.0000000  0.5000000
              0.0000000  0.0000000  0.0000000     0.0000000  0.0000000  0.5000000
              0.0000000  0.0000000  0.0000000     0.0000000  0.0000000  0.5000000
    toldfe    1.00000000E-05 Hartree
     typat    1  1  2  2
    useylm         1
       wtk      0.03125    0.06250    0.06250    0.06250    0.03125    0.06250
                0.06250    0.03125    0.06250    0.03125    0.03125    0.06250
                0.06250    0.06250    0.03125    0.06250    0.06250    0.03125
                0.06250    0.03125
    xangst    0.0000000000E+00  0.0000000000E+00  0.0000000000E+00
              2.0955417460E+00  2.0955417460E+00  0.0000000000E+00
              2.0955417460E+00  2.0955417460E+00  2.0955417460E+00
              4.1910834920E+00  4.1910834920E+00  2.0955417460E+00
     xcart    0.0000000000E+00  0.0000000000E+00  0.0000000000E+00
              3.9600000000E+00  3.9600000000E+00  0.0000000000E+00
              3.9600000000E+00  3.9600000000E+00  3.9600000000E+00
              7.9200000000E+00  7.9200000000E+00  3.9600000000E+00
      xred    0.0000000000E+00  0.0000000000E+00  0.0000000000E+00
              0.0000000000E+00  0.0000000000E+00  5.0000000000E-01
              5.0000000000E-01  5.0000000000E-01  2.5000000000E-01
              5.0000000000E-01  5.0000000000E-01  7.5000000000E-01
     znucl     28.00000    8.00000

================================================================================

 chkinp: Checking input parameters for consistency.

================================================================================
== DATASET  1 ==================================================================

 Real(R)+Recip(G) space primitive vectors, cartesian coordinates (Bohr,Bohr^-1):
 R(1)=  0.0000000  3.9600000  3.9600000  G(1)= -0.1262626  0.1262626  0.1262626
 R(2)=  3.9600000  0.0000000  3.9600000  G(2)=  0.1262626 -0.1262626  0.1262626
 R(3)=  7.9200000  7.9200000  0.0000000  G(3)=  0.0631313  0.0631313 -0.0631313
 Unit cell volume ucvol=  2.4839654E+02 bohr^3
 Angles (23,13,12)=  6.00000000E+01  6.00000000E+01  6.00000000E+01 degrees

 Coarse grid specifications (used for wave-functions):

 getcut: wavevector=  0.0000  0.0000  0.0000  ngfft=  20  20  40
         ecut(hartree)=     15.000   => boxcut(ratio)=   2.04837

 Fine grid specifications (used for densities):

 getcut: wavevector=  0.0000  0.0000  0.0000  ngfft=  30  30  60
         ecut(hartree)=     30.000   => boxcut(ratio)=   2.17444

--- Pseudopotential description ------------------------------------------------
- pspini: atom type   1  psp file is ../PAW/ni_atompaw.paw
- pspatm: opening atomic psp file    ../PAW/ni_atompaw.paw
 Paw atomic data for element Ni - Generated by AtomPAW (N. Holzwarth) + AtomPAW2Abinit v3.1.1
  28.00000  10.00000  20070601                znucl, zion, pspdat
    7    7    2    0      1080   0.00000      pspcod,pspxc,lmax,lloc,mmax,r2well
 Pseudopotential format is: paw3
 basis_size (lnmax)=  6 (lmn_size= 18), orbitals=   0   0   1   1   2   2
 Spheres core radius: rc_sph= 2.31080032
 4 radial meshes are used:
  - mesh 1: r(i)=AA*[exp(BB*(i-1))-1], size=1080 , AA= 0.29784E-03 BB= 0.83395E-02
  - mesh 2: r(i)=AA*[exp(BB*(i-1))-1], size=1075 , AA= 0.29784E-03 BB= 0.83395E-02
  - mesh 3: r(i)=AA*[exp(BB*(i-1))-1], size=1165 , AA= 0.29784E-03 BB= 0.83395E-02
  - mesh 4: r(i)=AA*[exp(BB*(i-1))-1], size=1250 , AA= 0.29784E-03 BB= 0.83395E-02
 Shapefunction is BESSEL type: shapef(r,l)=aa(1,l)*jl(q(1,l)*r)+aa(2,l)*jl(q(2,l)*r)
 Radius for shape functions =  2.00531667
 Radial grid used for partial waves is grid 1
 Radial grid used for projectors is grid 2
 Radial grid used for (t)core density is grid 3
 Radial grid used for Vloc is grid 4
 pspatm: atomic psp has been read  and splines computed

- pspini: atom type   2  psp file is ../PAW/O_LDA_abinit
- pspatm: opening atomic psp file    ../PAW/O_LDA_abinit
 Paw atomic data for element O - Generated by AtomPAW (N. Holzwarth) + AtomPAW2Abinit v3.1.1
   8.00000   6.00000  20070409                znucl, zion, pspdat
    7    7    1    0      1311   0.00000      pspcod,pspxc,lmax,lloc,mmax,r2well
 Pseudopotential format is: paw3
 basis_size (lnmax)=  4 (lmn_size=  8), orbitals=   0   0   1   1
 Spheres core radius: rc_sph= 1.41465230
 4 radial meshes are used:
  - mesh 1: r(i)=AA*[exp(BB*(i-1))-1], size=1311 , AA= 0.72565E-03 BB= 0.58052E-02
  - mesh 2: r(i)=AA*[exp(BB*(i-1))-1], size=1306 , AA= 0.72565E-03 BB= 0.58052E-02
  - mesh 3: r(i)=AA*[exp(BB*(i-1))-1], size=1329 , AA= 0.72565E-03 BB= 0.58052E-02
  - mesh 4: r(i)=AA*[exp(BB*(i-1))-1], size=1642 , AA= 0.72565E-03 BB= 0.58052E-02
 Shapefunction is SIN type: shapef(r)=[sin(pi*r/rshp)/(pi*r/rshp)]**2
 Radius for shape functions = sphere core radius
 Radial grid used for partial waves is grid 1
 Radial grid used for projectors is grid 2
 Radial grid used for (t)core density is grid 3
 Radial grid used for Vloc is grid 4
 pspatm: atomic psp has been read  and splines computed

   9.66185307E+02                                ecore*ucvol(ha*bohr**3)
--------------------------------------------------------------------------------

P newkpt: treating     40 bands with npw=     682 for ikpt=   1
P newkpt: treating     40 bands with npw=     689 for ikpt=   2
P newkpt: treating     40 bands with npw=     694 for ikpt=   3
P newkpt: treating     40 bands with npw=     687 for ikpt=   4
P newkpt: treating     40 bands with npw=     683 for ikpt=   5
P newkpt: treating     40 bands with npw=     698 for ikpt=   6
P newkpt: treating     40 bands with npw=     694 for ikpt=   7
P newkpt: treating     40 bands with npw=     689 for ikpt=   8
P newkpt: treating     40 bands with npw=     681 for ikpt=   9
P newkpt: treating     40 bands with npw=     686 for ikpt=  10
P newkpt: treating     40 bands with npw=     680 for ikpt=  11
P newkpt: treating     40 bands with npw=     688 for ikpt=  12
P newkpt: treating     40 bands with npw=     693 for ikpt=  13
P newkpt: treating     40 bands with npw=     681 for ikpt=  14
P newkpt: treating     40 bands with npw=     690 for ikpt=  15
P newkpt: treating     40 bands with npw=     695 for ikpt=  16
P newkpt: treating     40 bands with npw=     692 for ikpt=  17
P newkpt: treating     40 bands with npw=     696 for ikpt=  18
P newkpt: treating     40 bands with npw=     685 for ikpt=  19
P newkpt: treating     40 bands with npw=     679 for ikpt=  20
 
 setup2: Arith. and geom. avg. npw (full set) are     688.719     688.696

================================================================================

     iter   Etot(hartree)      deltaE(h)  residm     nres2    diffor    maxfor
 ETOT  1  -114.35977810697    -1.144E+02 5.796E+01 2.041E+03 0.000E+00 0.000E+00
 ETOT  2  -118.49648953440    -4.137E+00 4.683E+00 2.107E+03 9.960E-32 9.960E-32
 ETOT  3  -113.27696003093     5.220E+00 2.910E+01 7.516E+02 9.960E-32 0.000E+00
 ETOT  4  -112.06793075853     1.209E+00 3.812E+00 2.650E+01 0.000E+00 0.000E+00
 ETOT  5  -112.16721738940    -9.929E-02 7.442E-01 8.557E+00 0.000E+00 0.000E+00
 ETOT  6  -112.18875666524    -2.154E-02 2.099E-01 8.371E+00 0.000E+00 0.000E+00
 ETOT  7  -112.19601630203    -7.260E-03 9.752E-02 1.093E+01 0.000E+00 0.000E+00
 ETOT  8  -112.19979547968    -3.779E-03 4.374E-02 9.275E+00 0.000E+00 0.000E+00
 ETOT  9  -112.23868764259    -3.889E-02 5.763E-02 2.218E+01 4.980E-32 4.980E-32
 ETOT 10  -112.36575383422    -1.271E-01 3.960E-01 1.064E+02 2.656E-31 2.490E-31
 ETOT 11  -112.17655134002     1.892E-01 8.919E-01 7.919E+00 2.490E-31 0.000E+00
 ETOT 12  -112.16836769835     8.184E-03 2.055E-02 8.800E-01 0.000E+00 0.000E+00
 ETOT 13  -112.16889280866    -5.251E-04 1.098E-02 1.898E-01 0.000E+00 0.000E+00
 ETOT 14  -112.16947871386    -5.859E-04 2.806E-03 2.953E-02 0.000E+00 0.000E+00
 ETOT 15  -112.16981247345    -3.338E-04 2.514E-03 1.384E-02 4.980E-32 4.980E-32
 ETOT 16  -112.16988762365    -7.515E-05 1.105E-03 4.833E-03 0.000E+00 4.980E-32
 ETOT 17  -112.16990206095    -1.444E-05 2.002E-03 7.715E-04 6.640E-32 4.980E-32
 ETOT 18  -112.16992066316    -1.860E-05 9.517E-04 3.668E-04 4.980E-32 0.000E+00
 ETOT 19  -112.16992295079    -2.288E-06 1.691E-03 1.048E-04 1.162E-31 1.162E-31
 ETOT 20  -112.16992366777    -7.170E-07 7.485E-04 9.747E-05 1.162E-31 0.000E+00

 At SCF step   20, etot is converged :
  for the second time, diff in etot=  7.170E-07 < toldfe=  1.000E-05

 Cartesian components of stress tensor (hartree/bohr^3)
  sigma(1 1)=  1.09038630E-03  sigma(3 2)= -7.94722856E-06
  sigma(2 2)=  1.09038630E-03  sigma(3 1)= -7.94722856E-06
  sigma(3 3)=  1.09038630E-03  sigma(2 1)=  7.94722856E-06
 

 Integrated total density in atomic spheres:
 -------------------------------------------
 Atom  Sphere radius  Integrated_up_density  Integrated_dn_density  Total(up+dn)   Diff(up-dn)
    1        2.31080             5.09436023             3.90700183    9.00136206    1.18735839
    2        2.31080             3.90700183             5.09436023    9.00136206   -1.18735839
    3        2.31080             3.44707732             3.44707732    6.89415463    0.00000000
    4        2.31080             3.44707732             3.44707732    6.89415463    0.00000000
 Note: Diff(up-dn) can be considered as a rough approximation of a local magnetic moment.



 PAW TEST:
 ==== Compensation charge inside spheres ============
 The following values must be close...
 Compensation charge over spherical meshes =     13.610059111871980
 Compensation charge over fine fft grid    =     13.612684143615425

 ==== Results concerning PAW augmentation regions ====
 
 Total pseudopotential strength Dij (hartree):
 Atom #  1 - Spin component 1
   0.39066  -0.04007   0.00000   0.00000   0.00000   0.00000   0.00000   0.00000   0.00004  -0.00004   0.00000  -0.00004 ...
  -0.04007   9.69305   0.00000   0.00000   0.00000   0.00000   0.00000   0.00000   0.00009  -0.00009   0.00000  -0.00009 ...
   0.00000   0.00000   0.04261   0.00000   0.00000   0.03033   0.00003  -0.00003   0.00000   0.00000   0.00000   0.00000 ...
   0.00000   0.00000   0.00000   0.04261   0.00000   0.00003   0.03033   0.00003   0.00000   0.00000   0.00000   0.00000 ...
   0.00000   0.00000   0.00000   0.00000   0.04261  -0.00003   0.00003   0.03033   0.00000   0.00000   0.00000   0.00000 ...
   0.00000   0.00000   0.03033   0.00003  -0.00003  21.89957   0.00081  -0.00081   0.00000   0.00000   0.00000   0.00000 ...
   0.00000   0.00000   0.00003   0.03033   0.00003   0.00081  21.89957   0.00081   0.00000   0.00000   0.00000   0.00000 ...
   0.00000   0.00000  -0.00003   0.00003   0.03033  -0.00081   0.00081  21.89957   0.00000   0.00000   0.00000   0.00000 ...
   0.00004   0.00009   0.00000   0.00000   0.00000   0.00000   0.00000   0.00000  -0.03693   0.00007   0.00023   0.00007 ...
  -0.00004  -0.00009   0.00000   0.00000   0.00000   0.00000   0.00000   0.00000   0.00007  -0.03693   0.00012  -0.00007 ...
   0.00000   0.00000   0.00000   0.00000   0.00000   0.00000   0.00000   0.00000   0.00023   0.00012  -0.05778   0.00012 ...
  -0.00004  -0.00009   0.00000   0.00000   0.00000   0.00000   0.00000   0.00000   0.00007  -0.00007   0.00012  -0.03693 ...
   ...  only 12  components have been written...
 Atom #  1 - Spin component 2
   0.38364  -0.04059   0.00000   0.00000   0.00000   0.00000   0.00000   0.00000   0.00000   0.00000   0.00000   0.00000 ...
  -0.04059   9.71876   0.00000   0.00000   0.00000   0.00000   0.00000   0.00000   0.00005  -0.00005   0.00000  -0.00005 ...
   0.00000   0.00000   0.04217   0.00000   0.00000   0.04319   0.00001  -0.00001   0.00000   0.00000   0.00000   0.00000 ...
   0.00000   0.00000   0.00000   0.04217   0.00000   0.00001   0.04319   0.00001   0.00000   0.00000   0.00000   0.00000 ...
   0.00000   0.00000   0.00000   0.00000   0.04217  -0.00001   0.00001   0.04319   0.00000   0.00000   0.00000   0.00000 ...
   0.00000   0.00000   0.04319   0.00001  -0.00001  21.88148   0.00061  -0.00061   0.00000   0.00000   0.00000   0.00000 ...
   0.00000   0.00000   0.00001   0.04319   0.00001   0.00061  21.88148   0.00061   0.00000   0.00000   0.00000   0.00000 ...
   0.00000   0.00000  -0.00001   0.00001   0.04319  -0.00061   0.00061  21.88148   0.00000   0.00000   0.00000   0.00000 ...
   0.00000   0.00005   0.00000   0.00000   0.00000   0.00000   0.00000   0.00000  -0.01198   0.00009   0.00004   0.00009 ...
   0.00000  -0.00005   0.00000   0.00000   0.00000   0.00000   0.00000   0.00000   0.00009  -0.01198   0.00002  -0.00009 ...
   0.00000   0.00000   0.00000   0.00000   0.00000   0.00000   0.00000   0.00000   0.00004   0.00002  -0.00736   0.00002 ...
   0.00000  -0.00005   0.00000   0.00000   0.00000   0.00000   0.00000   0.00000   0.00009  -0.00009   0.00002  -0.01198 ...
   ...  only 12  components have been written...
 Atom #  4 - Spin component 1
   0.87883  -2.70321  -0.00014   0.00014  -0.00014   0.00094  -0.00094   0.00094
  -2.70321   8.26764   0.00040  -0.00040   0.00040  -0.00264   0.00264  -0.00264
  -0.00014   0.00040  -0.20603  -0.00003   0.00003   0.42869   0.00012  -0.00012
   0.00014  -0.00040  -0.00003  -0.20603  -0.00003   0.00012   0.42869   0.00012
  -0.00014   0.00040   0.00003  -0.00003  -0.20603  -0.00012   0.00012   0.42869
   0.00094  -0.00264   0.42869   0.00012  -0.00012   2.01773  -0.00057   0.00057
  -0.00094   0.00264   0.00012   0.42869   0.00012  -0.00057   2.01773  -0.00057
   0.00094  -0.00264  -0.00012   0.00012   0.42869   0.00057  -0.00057   2.01773
 Atom #  4 - Spin component 2
   0.87883  -2.70321   0.00014  -0.00014   0.00014  -0.00094   0.00094  -0.00094
  -2.70321   8.26764  -0.00040   0.00040  -0.00040   0.00264  -0.00264   0.00264
   0.00014  -0.00040  -0.20603  -0.00003   0.00003   0.42869   0.00012  -0.00012
  -0.00014   0.00040  -0.00003  -0.20603  -0.00003   0.00012   0.42869   0.00012
   0.00014  -0.00040   0.00003  -0.00003  -0.20603  -0.00012   0.00012   0.42869
  -0.00094   0.00264   0.42869   0.00012  -0.00012   2.01773  -0.00057   0.00057
   0.00094  -0.00264   0.00012   0.42869   0.00012  -0.00057   2.01773  -0.00057
  -0.00094   0.00264  -0.00012   0.00012   0.42869   0.00057  -0.00057   2.01773
 
 
 Augmentation waves occupancies Rhoij:
 Atom #  1 - Spin component 1
   0.41003   0.00233   0.00000   0.00000   0.00000   0.00000   0.00000   0.00000   0.00018  -0.00018   0.00000  -0.00018 ...
   0.00233   0.00002   0.00000   0.00000   0.00000   0.00000   0.00000   0.00000   0.00000   0.00000   0.00000   0.00000 ...
   0.00000   0.00000   0.50994  -0.00112   0.00112   0.00124   0.00000   0.00000   0.00000   0.00000   0.00000   0.00000 ...
   0.00000   0.00000  -0.00112   0.50994  -0.00112   0.00000   0.00124   0.00000   0.00000   0.00000   0.00000   0.00000 ...
   0.00000   0.00000   0.00112  -0.00112   0.50994   0.00000   0.00000   0.00124   0.00000   0.00000   0.00000   0.00000 ...
   0.00000   0.00000   0.00124   0.00000   0.00000   0.00000   0.00000   0.00000   0.00000   0.00000   0.00000   0.00000 ...
   0.00000   0.00000   0.00000   0.00124   0.00000   0.00000   0.00000   0.00000   0.00000   0.00000   0.00000   0.00000 ...
   0.00000   0.00000   0.00000   0.00000   0.00124   0.00000   0.00000   0.00000   0.00000   0.00000   0.00000   0.00000 ...
   0.00018   0.00000   0.00000   0.00000   0.00000   0.00000   0.00000   0.00000   0.95387  -0.00002  -0.00025  -0.00002 ...
  -0.00018   0.00000   0.00000   0.00000   0.00000   0.00000   0.00000   0.00000  -0.00002   0.95387  -0.00012   0.00002 ...
   0.00000   0.00000   0.00000   0.00000   0.00000   0.00000   0.00000   0.00000  -0.00025  -0.00012   0.89517  -0.00012 ...
  -0.00018   0.00000   0.00000   0.00000   0.00000   0.00000   0.00000   0.00000  -0.00002   0.00002  -0.00012   0.95387 ...
   ...  only 12  components have been written...
 Atom #  1 - Spin component 2
   0.42769   0.00267   0.00000   0.00000   0.00000   0.00000   0.00000   0.00000  -0.00034   0.00034   0.00000   0.00034 ...
   0.00267   0.00003   0.00000   0.00000   0.00000   0.00000   0.00000   0.00000   0.00000   0.00000   0.00000   0.00000 ...
   0.00000   0.00000   0.53563   0.00086  -0.00086   0.00135   0.00000   0.00000   0.00000   0.00000   0.00000   0.00000 ...
   0.00000   0.00000   0.00086   0.53563   0.00086   0.00000   0.00135   0.00000   0.00000   0.00000   0.00000   0.00000 ...
   0.00000   0.00000  -0.00086   0.00086   0.53563   0.00000   0.00000   0.00135   0.00000   0.00000   0.00000   0.00000 ...
   0.00000   0.00000   0.00135   0.00000   0.00000   0.00000   0.00000   0.00000   0.00000   0.00000   0.00000   0.00000 ...
   0.00000   0.00000   0.00000   0.00135   0.00000   0.00000   0.00000   0.00000   0.00000   0.00000   0.00000   0.00000 ...
   0.00000   0.00000   0.00000   0.00000   0.00135   0.00000   0.00000   0.00000   0.00000   0.00000   0.00000   0.00000 ...
  -0.00034   0.00000   0.00000   0.00000   0.00000   0.00000   0.00000   0.00000   0.97806  -0.00015   0.00268  -0.00015 ...
   0.00034   0.00000   0.00000   0.00000   0.00000   0.00000   0.00000   0.00000  -0.00015   0.97806   0.00134   0.00015 ...
   0.00000   0.00000   0.00000   0.00000   0.00000   0.00000   0.00000   0.00000   0.00268   0.00134   0.47591   0.00134 ...
   0.00034   0.00000   0.00000   0.00000   0.00000   0.00000   0.00000   0.00000  -0.00015   0.00015   0.00134   0.97806 ...
   ...  only 12  components have been written...
 Atom #  4 - Spin component 1
   0.96257   0.00689   0.01065  -0.01065   0.01065  -0.00024   0.00024  -0.00024
   0.00689   0.00048  -0.00189   0.00189  -0.00189   0.00000   0.00000   0.00000
   0.01065  -0.00189   0.87429  -0.00118   0.00118   0.01882   0.00003  -0.00003
  -0.01065   0.00189  -0.00118   0.87429  -0.00118   0.00003   0.01882   0.00003
   0.01065  -0.00189   0.00118  -0.00118   0.87429  -0.00003   0.00003   0.01882
  -0.00024   0.00000   0.01882   0.00003  -0.00003   0.00050   0.00000   0.00000
   0.00024   0.00000   0.00003   0.01882   0.00003   0.00000   0.00050   0.00000
  -0.00024   0.00000  -0.00003   0.00003   0.01882   0.00000   0.00000   0.00050
 Atom #  4 - Spin component 2
   0.96257   0.00689  -0.01065   0.01065  -0.01065   0.00024  -0.00024   0.00024
   0.00689   0.00048   0.00189  -0.00189   0.00189   0.00000   0.00000   0.00000
  -0.01065   0.00189   0.87429  -0.00118   0.00118   0.01882   0.00003  -0.00003
   0.01065  -0.00189  -0.00118   0.87429  -0.00118   0.00003   0.01882   0.00003
  -0.01065   0.00189   0.00118  -0.00118   0.87429  -0.00003   0.00003   0.01882
   0.00024   0.00000   0.01882   0.00003  -0.00003   0.00050   0.00000   0.00000
  -0.00024   0.00000   0.00003   0.01882   0.00003   0.00000   0.00050   0.00000
   0.00024   0.00000  -0.00003   0.00003   0.01882   0.00000   0.00000   0.00050
 
 
================================================================================

 ----iterations are completed or convergence reached----

 Mean square residual over all n,k,spin=   2.4300E-06; max=  7.4851E-04
   0.1250  0.1250  0.1250    1  5.82691E-05 kpt; spin; max resid(k); each band:
 5.18E-10 6.09E-10 3.37E-08 4.99E-08 6.21E-08 3.01E-08 5.00E-08 3.57E-08
 3.80E-08 4.63E-08 5.87E-08 1.13E-07 1.45E-07 4.35E-08 2.33E-08 1.24E-08
 4.44E-08 1.29E-07 4.37E-09 5.70E-09 6.20E-09 9.00E-09 1.61E-10 4.40E-08
 5.02E-08 3.50E-08 1.85E-08 1.40E-08 2.04E-08 6.62E-08 3.43E-08 3.70E-08
 6.60E-08 4.85E-08 3.45E-08 3.51E-08 3.64E-08 4.32E-08 3.68E-07 5.83E-05
   0.3750  0.1250  0.1250    1  3.80882E-06 kpt; spin; max resid(k); each band:
 6.27E-10 1.97E-09 2.18E-08 2.29E-08 4.08E-08 1.19E-07 8.43E-08 3.69E-08
 6.72E-08 2.03E-08 3.73E-08 1.23E-07 8.40E-08 5.42E-08 1.31E-08 7.52E-08
 1.81E-08 4.77E-08 7.61E-09 1.05E-08 6.15E-09 2.06E-08 2.54E-08 1.31E-08
 2.49E-09 7.81E-09 4.04E-08 6.81E-08 2.66E-08 6.42E-08 3.28E-08 9.99E-09
 5.60E-08 3.43E-08 1.29E-07 2.12E-07 5.59E-08 1.56E-07 3.81E-06 8.27E-07
  -0.3750  0.1250  0.1250    1  1.86160E-05 kpt; spin; max resid(k); each band:
 8.26E-10 6.52E-09 1.97E-08 9.75E-09 1.22E-07 1.04E-07 1.47E-07 3.79E-08
 9.15E-08 2.06E-08 1.47E-08 9.16E-08 4.57E-08 4.19E-08 1.07E-08 9.41E-09
 5.04E-08 5.89E-08 5.67E-09 1.75E-09 5.49E-09 3.19E-09 6.94E-08 5.98E-09
 2.42E-09 2.63E-09 1.52E-08 3.82E-08 3.10E-08 4.94E-08 1.55E-08 2.13E-08
 2.67E-08 6.14E-08 1.85E-08 4.66E-08 5.43E-08 2.34E-07 2.50E-06 1.86E-05
  -0.1250  0.1250  0.1250    1  2.40944E-04 kpt; spin; max resid(k); each band:
 4.83E-10 1.81E-09 3.95E-08 1.39E-07 6.94E-08 7.73E-08 6.79E-08 2.59E-08
 7.93E-08 8.73E-08 2.23E-08 3.64E-08 4.11E-08 1.47E-08 2.40E-08 5.96E-08
 1.50E-08 8.64E-08 1.05E-08 1.01E-08 5.81E-09 1.64E-08 2.43E-08 2.71E-09
 3.15E-08 2.64E-08 2.93E-08 3.98E-08 1.71E-08 5.28E-08 6.98E-08 2.65E-08
 2.90E-08 8.48E-08 8.28E-09 8.69E-08 4.58E-08 7.32E-08 7.91E-08 2.41E-04
   0.3750  0.3750  0.1250    1  2.61191E-07 kpt; spin; max resid(k); each band:
 3.05E-09 1.42E-09 3.25E-08 2.56E-08 4.29E-08 5.18E-08 2.53E-08 1.14E-08
 6.19E-08 1.08E-07 9.05E-08 1.69E-07 5.92E-08 1.04E-07 1.82E-08 1.28E-08
 2.25E-08 6.39E-08 9.05E-09 8.40E-09 3.87E-09 4.26E-10 1.23E-08 4.02E-08
 8.85E-10 2.33E-09 7.40E-09 3.69E-08 5.87E-08 2.03E-08 7.23E-08 7.14E-08
 6.53E-08 3.78E-08 3.61E-08 4.83E-09 3.25E-08 2.61E-07 1.56E-07 1.64E-07
  -0.3750  0.3750  0.1250    1  4.17998E-07 kpt; spin; max resid(k); each band:
 1.03E-09 5.55E-09 1.19E-08 1.68E-08 5.97E-08 9.06E-08 3.10E-08 7.85E-08
 1.21E-07 3.10E-08 1.83E-08 1.02E-07 5.95E-08 8.78E-08 8.34E-09 2.47E-08
 8.20E-09 3.81E-08 3.17E-09 2.08E-08 6.27E-09 1.68E-08 1.09E-08 1.26E-08
 1.28E-09 1.95E-09 5.14E-08 3.73E-08 5.35E-08 1.67E-08 1.34E-08 1.05E-08
 4.14E-08 2.68E-08 2.17E-08 9.87E-08 4.07E-08 2.17E-08 3.15E-07 4.18E-07
  -0.1250  0.3750  0.1250    1  5.90735E-07 kpt; spin; max resid(k); each band:
 9.77E-10 2.59E-09 3.06E-08 1.45E-08 1.52E-07 2.01E-08 1.57E-07 2.48E-08
 8.23E-08 1.57E-08 3.35E-08 3.92E-08 1.01E-07 6.43E-08 1.51E-08 4.80E-09
 2.48E-08 3.98E-08 1.36E-08 5.64E-09 1.01E-08 4.62E-09 5.06E-08 1.31E-08
 4.16E-09 2.12E-09 2.87E-08 5.55E-08 5.51E-08 4.79E-08 1.87E-08 1.08E-08
 8.45E-08 1.92E-08 1.91E-08 7.35E-08 1.26E-08 2.63E-08 3.36E-07 5.91E-07
  -0.3750 -0.3750  0.1250    1  3.43900E-04 kpt; spin; max resid(k); each band:
 5.27E-10 2.77E-09 3.58E-08 2.81E-08 9.88E-08 4.67E-08 6.81E-09 3.73E-08
 1.01E-07 7.03E-08 2.56E-08 1.07E-07 8.18E-08 4.05E-08 6.22E-09 1.99E-08
 4.17E-08 9.93E-08 2.93E-09 6.96E-09 1.15E-08 9.48E-10 6.96E-08 6.85E-09
 2.37E-09 1.36E-09 1.07E-08 1.42E-08 5.30E-08 7.05E-08 5.60E-09 9.03E-08
 4.38E-08 1.08E-08 1.47E-08 1.41E-07 3.11E-08 1.52E-06 1.62E-05 3.44E-04
  -0.1250 -0.3750  0.1250    1  2.72655E-05 kpt; spin; max resid(k); each band:
 9.67E-10 3.55E-09 2.66E-08 1.81E-08 3.93E-08 1.17E-07 2.60E-08 1.88E-08
 1.15E-07 7.23E-08 2.88E-08 5.09E-08 5.73E-08 6.30E-08 3.38E-08 1.94E-08
 1.42E-08 7.72E-08 1.76E-08 1.23E-08 1.13E-08 4.05E-09 5.52E-08 1.08E-08
 3.41E-09 3.30E-09 1.73E-08 5.80E-08 3.53E-08 4.48E-08 9.97E-08 1.51E-08
 2.86E-08 4.35E-09 1.22E-08 4.55E-08 1.08E-07 1.16E-07 3.33E-06 2.73E-05
  -0.1250 -0.1250  0.1250    1  2.19281E-04 kpt; spin; max resid(k); each band:
 5.31E-10 4.50E-10 4.39E-08 1.95E-07 8.78E-08 7.24E-09 2.92E-08 2.83E-08
 5.79E-08 5.26E-08 3.19E-08 1.17E-07 2.24E-07 3.45E-08 2.29E-08 5.19E-08
 2.56E-08 1.95E-07 5.96E-09 4.08E-09 1.27E-08 9.62E-09 6.02E-08 4.52E-09
 3.27E-08 1.90E-08 4.20E-08 5.94E-08 1.09E-08 3.25E-08 4.12E-08 8.13E-08
 3.17E-08 1.27E-07 6.06E-09 3.07E-08 1.06E-07 5.27E-08 1.06E-07 2.19E-04
   0.1250  0.1250  0.3750    1  7.48514E-04 kpt; spin; max resid(k); each band:
 5.09E-10 7.24E-10 2.41E-08 9.14E-08 8.37E-08 2.17E-08 5.57E-08 5.64E-08
 1.38E-08 1.38E-08 7.06E-08 1.13E-07 9.04E-08 1.27E-08 9.79E-09 9.02E-08
 4.34E-08 5.19E-08 4.04E-09 9.00E-09 9.15E-09 9.57E-09 2.01E-08 2.45E-09
 1.92E-08 3.30E-08 4.01E-08 1.35E-09 4.51E-08 6.67E-08 2.32E-08 1.74E-08
 5.97E-08 6.03E-08 1.90E-08 5.65E-08 5.10E-09 6.81E-08 1.84E-07 7.49E-04
   0.3750  0.1250  0.3750    1  1.26415E-06 kpt; spin; max resid(k); each band:
 8.32E-10 1.75E-09 8.16E-08 2.46E-08 2.49E-08 1.37E-07 1.52E-07 7.50E-08
 5.56E-08 4.20E-08 2.95E-08 3.60E-08 1.62E-07 1.53E-07 1.49E-08 6.97E-09
 3.84E-08 3.67E-08 4.48E-09 1.16E-08 1.71E-08 2.21E-08 3.74E-08 8.49E-09
 2.65E-09 8.70E-09 3.20E-08 4.13E-08 3.51E-08 9.03E-09 1.15E-07 2.90E-08
 3.95E-08 2.60E-08 3.39E-08 3.69E-08 6.81E-08 1.99E-07 4.61E-08 1.26E-06
  -0.3750  0.1250  0.3750    1  4.17915E-06 kpt; spin; max resid(k); each band:
 2.79E-09 1.00E-09 1.59E-08 1.37E-08 5.47E-08 1.19E-07 1.63E-08 4.33E-08
 9.46E-08 5.46E-08 9.94E-08 8.47E-08 4.81E-08 5.41E-08 2.32E-08 1.35E-08
 2.23E-08 1.13E-07 6.56E-09 1.65E-08 4.51E-09 5.84E-09 6.62E-08 1.02E-08
 7.03E-10 3.87E-09 1.46E-08 5.52E-08 3.36E-08 3.37E-08 3.32E-08 1.94E-09
 5.71E-08 2.02E-08 2.31E-08 3.08E-08 1.09E-08 1.57E-08 1.62E-07 4.18E-06
  -0.1250  0.1250  0.3750    1  7.14671E-05 kpt; spin; max resid(k); each band:
 7.88E-10 9.14E-10 2.14E-08 2.83E-08 1.31E-07 7.95E-08 5.67E-08 4.34E-08
 7.59E-08 1.91E-08 6.77E-08 8.08E-08 8.68E-08 5.61E-08 2.12E-08 2.56E-08
 5.79E-08 2.36E-08 1.68E-08 1.21E-08 9.16E-09 2.19E-08 5.50E-08 1.18E-08
 3.58E-09 1.00E-08 3.48E-08 4.77E-08 3.28E-08 9.11E-08 7.64E-08 1.41E-08
 9.06E-08 1.40E-08 5.76E-08 9.20E-08 1.59E-07 5.59E-07 7.11E-07 7.15E-05
   0.3750  0.3750  0.3750    1  3.14472E-06 kpt; spin; max resid(k); each band:
 7.87E-10 3.00E-09 1.71E-08 2.40E-08 1.65E-08 1.84E-07 7.02E-08 7.62E-08
 2.84E-08 1.39E-08 1.74E-08 7.69E-08 1.03E-07 2.02E-07 9.18E-08 6.40E-09
 1.61E-08 1.30E-08 1.07E-08 2.37E-09 1.37E-08 1.66E-08 1.40E-08 4.27E-08
 3.55E-10 8.64E-09 2.45E-08 2.84E-08 1.37E-08 2.03E-08 5.00E-08 2.36E-08
 1.17E-08 2.64E-08 7.48E-09 5.36E-08 1.19E-07 1.16E-07 3.98E-07 3.14E-06
  -0.3750  0.3750  0.3750    1  1.65894E-07 kpt; spin; max resid(k); each band:
 9.31E-10 1.64E-09 2.74E-08 2.44E-08 2.25E-08 3.78E-08 5.12E-08 1.45E-07
 4.45E-08 2.82E-08 6.54E-08 5.25E-08 1.46E-07 2.08E-08 1.69E-08 1.86E-08
 3.59E-08 3.80E-08 4.58E-09 1.54E-08 1.03E-08 8.06E-09 4.44E-08 6.49E-08
 2.34E-09 9.18E-10 3.45E-08 8.37E-08 5.42E-08 3.44E-08 1.00E-08 2.98E-08
 1.64E-08 7.64E-08 2.69E-08 2.57E-08 4.86E-08 3.16E-08 1.66E-07 4.06E-08
  -0.1250  0.3750  0.3750    1  4.88197E-05 kpt; spin; max resid(k); each band:
 1.61E-09 2.74E-09 2.38E-08 1.10E-08 2.82E-08 1.03E-07 3.27E-08 1.96E-08
 3.32E-08 4.24E-08 3.49E-08 4.35E-08 3.82E-08 5.41E-08 3.72E-08 7.42E-09
 2.93E-08 1.25E-08 6.72E-09 1.19E-08 1.03E-08 4.45E-09 1.51E-08 4.91E-08
 2.03E-09 3.00E-09 2.11E-08 2.44E-08 2.90E-08 5.60E-08 1.34E-08 1.54E-08
 5.62E-08 1.53E-08 2.47E-08 7.61E-08 1.77E-08 1.88E-08 1.24E-07 4.88E-05
  -0.3750 -0.3750  0.3750    1  5.19981E-05 kpt; spin; max resid(k); each band:
 4.93E-10 2.41E-09 1.12E-08 1.54E-08 1.21E-07 3.29E-08 2.37E-07 2.30E-08
 8.04E-08 1.78E-08 2.23E-08 2.54E-08 1.55E-07 6.41E-08 2.56E-08 5.71E-09
 4.05E-08 3.41E-08 3.50E-09 6.90E-10 1.05E-08 1.52E-08 2.59E-08 6.99E-09
 5.43E-09 8.46E-10 2.83E-08 1.15E-08 2.55E-08 4.30E-08 1.57E-08 6.42E-09
 9.46E-08 1.71E-08 1.19E-08 1.40E-08 7.61E-08 5.36E-08 3.48E-07 5.20E-05
  -0.1250 -0.3750  0.3750    1  3.78125E-05 kpt; spin; max resid(k); each band:
 1.50E-09 2.71E-09 1.31E-08 2.43E-08 2.56E-08 1.23E-07 5.45E-08 4.52E-08
 6.17E-08 2.58E-08 1.34E-07 5.75E-08 5.34E-08 7.74E-08 3.64E-08 1.29E-08
 2.35E-08 4.93E-08 1.50E-08 1.53E-08 3.60E-09 2.79E-08 8.41E-09 6.01E-08
 5.48E-09 5.40E-09 3.78E-08 4.14E-08 3.31E-08 1.60E-07 2.71E-08 9.47E-09
 5.07E-08 6.57E-08 3.87E-08 5.21E-08 2.53E-07 9.61E-08 5.89E-07 3.78E-05
  -0.1250 -0.1250  0.3750    1  3.02750E-06 kpt; spin; max resid(k); each band:
 4.79E-10 8.67E-10 2.47E-08 5.18E-08 2.99E-07 5.66E-08 1.87E-08 5.58E-08
 3.11E-08 1.39E-08 1.26E-07 1.07E-07 3.51E-08 3.35E-08 2.67E-08 1.60E-07
 9.24E-08 6.68E-08 3.75E-09 1.40E-08 3.43E-08 3.31E-08 1.25E-08 1.95E-08
 7.60E-09 1.47E-08 4.54E-08 6.85E-08 3.49E-09 1.86E-08 6.32E-08 9.09E-08
 6.56E-08 1.80E-08 2.08E-08 7.79E-08 3.44E-08 1.16E-07 1.87E-07 3.03E-06
 reduced coordinates (array xred) for    4 atoms
       0.000000000000      0.000000000000      0.000000000000
       0.000000000000      0.000000000000      0.500000000000
       0.500000000000      0.500000000000      0.250000000000
       0.500000000000      0.500000000000      0.750000000000
 rms dE/dt=  0.0000E+00; max dE/dt=  0.0000E+00; dE/dt below (all hartree)
    1       0.000000000000      0.000000000000      0.000000000000
    2       0.000000000000      0.000000000000      0.000000000000
    3       0.000000000000      0.000000000000      0.000000000000
    4       0.000000000000      0.000000000000      0.000000000000
 
 cartesian coordinates (angstrom) at end:
    1      0.00000000000000     0.00000000000000     0.00000000000000
    2      2.09554174601640     2.09554174601640     0.00000000000000
    3      2.09554174601640     2.09554174601640     2.09554174601640
    4      4.19108349203280     4.19108349203280     2.09554174601640

 cartesian forces (hartree/bohr) at end:
    1      0.00000000000000     0.00000000000000     0.00000000000000
    2      0.00000000000000     0.00000000000000     0.00000000000000
    3      0.00000000000000     0.00000000000000     0.00000000000000
    4      0.00000000000000     0.00000000000000     0.00000000000000
 frms,max,avg= 0.0000000E+00 0.0000000E+00   0.000E+00  0.000E+00  0.000E+00 h/b

 cartesian forces (eV/Angstrom) at end:
    1      0.00000000000000     0.00000000000000     0.00000000000000
    2      0.00000000000000     0.00000000000000     0.00000000000000
    3      0.00000000000000     0.00000000000000     0.00000000000000
    4      0.00000000000000     0.00000000000000     0.00000000000000
 frms,max,avg= 0.0000000E+00 0.0000000E+00   0.000E+00  0.000E+00  0.000E+00 e/A
 length scales=  7.920000000000  7.920000000000  7.920000000000 bohr
              =  4.191083492033  4.191083492033  4.191083492033 angstroms
 prteigrs : about to open file tldau_1o_EIG
 Fermi (or HOMO) energy (hartree) =   0.29691   Average Vxc (hartree)=  -0.48102
 Eigenvalues (hartree) for nkpt=  20  k points:
 kpt#   1, nband= 40, wtk=  0.03125, kpt=  0.1250  0.1250  0.1250 (reduced coord)
  -0.41528  -0.36815   0.02514   0.10935   0.11462   0.15688   0.18465   0.18609
   0.23285   0.24259   0.24502   0.24970   0.26506   0.27934   0.27983   0.28731
   0.34136   0.35624   0.40685   0.54913   0.66699   0.77936   0.83552   0.87958
   0.96662   0.97141   1.02887   1.07930   1.14194   1.15780   1.18613   1.19398
   1.21305   1.29264   1.35033   1.35249   1.39320   1.40631   1.56272   1.61608
 kpt#   2, nband= 40, wtk=  0.06250, kpt=  0.3750  0.1250  0.1250 (reduced coord)
  -0.38509  -0.36656   0.06061   0.06359   0.11310   0.12294   0.12670   0.13708
   0.23725   0.24672   0.25717   0.26518   0.27270   0.28498   0.28899   0.29691
   0.33123   0.34889   0.51309   0.58974   0.68416   0.71826   0.72466   0.82188
   0.85671   0.87663   1.01099   1.06744   1.14771   1.21475   1.24173   1.37469
   1.40661   1.41209   1.45234   1.46256   1.46872   1.49891   1.55402   1.61544
 kpt#   3, nband= 40, wtk=  0.06250, kpt= -0.3750  0.1250  0.1250 (reduced coord)
  -0.37040  -0.36567   0.02702   0.06512   0.11140   0.11695   0.12940   0.14260
   0.22260   0.25220   0.25881   0.26663   0.27277   0.28475   0.29080   0.29445
   0.34446   0.35842   0.53979   0.55907   0.67303   0.69362   0.74041   0.79246
   0.83666   0.88793   0.95344   1.12348   1.17765   1.23283   1.33357   1.34516
   1.37356   1.37548   1.42189   1.48063   1.48645   1.60212   1.65636   1.71333
 kpt#   4, nband= 40, wtk=  0.06250, kpt= -0.1250  0.1250  0.1250 (reduced coord)
  -0.40351  -0.36759   0.04445   0.10468   0.10997   0.11981   0.15346   0.16558
   0.23675   0.24549   0.25137   0.25888   0.27385   0.27772   0.29000   0.29253
   0.33036   0.34464   0.45889   0.59084   0.66022   0.73997   0.80595   0.84911
   0.87706   0.94587   1.00997   1.09317   1.12510   1.17541   1.18176   1.30527
   1.31707   1.35816   1.39756   1.41560   1.43438   1.45633   1.50018   1.60118
 kpt#   5, nband= 40, wtk=  0.03125, kpt=  0.3750  0.3750  0.1250 (reduced coord)
  -0.37699  -0.36829   0.03823   0.06104   0.10761   0.11558   0.15297   0.15754
   0.21310   0.24976   0.25782   0.26263   0.26990   0.28239   0.29125   0.29660
   0.32869   0.35560   0.54872   0.57714   0.66460   0.71077   0.74551   0.77402
   0.85121   0.90496   0.91835   1.13529   1.16805   1.22397   1.35032   1.38313
   1.38561   1.42996   1.45021   1.45923   1.49790   1.51380   1.55162   1.55926
 kpt#   6, nband= 40, wtk=  0.06250, kpt= -0.3750  0.3750  0.1250 (reduced coord)
  -0.36584  -0.36391   0.04405   0.07257   0.09120   0.10034   0.11824   0.12899
   0.24084   0.25295   0.25627   0.27027   0.27950   0.28554   0.29087   0.29528
   0.33253   0.34779   0.59963   0.60270   0.64973   0.68215   0.70376   0.73181
   0.85194   0.87014   1.00772   1.09701   1.17384   1.23764   1.29748   1.39011
   1.39838   1.41516   1.44014   1.45398   1.46989   1.55523   1.66697   1.68978
 kpt#   7, nband= 40, wtk=  0.06250, kpt= -0.1250  0.3750  0.1250 (reduced coord)
  -0.37224  -0.36410   0.04082   0.07160   0.10759   0.11495   0.11751   0.12592
   0.23615   0.25378   0.26017   0.26828   0.27111   0.28015   0.29335   0.29503
   0.32990   0.35739   0.55821   0.58909   0.67931   0.69242   0.71895   0.76356
   0.84844   0.85319   1.00990   1.11076   1.18480   1.21994   1.24309   1.38054
   1.39656   1.40813   1.45741   1.46798   1.48675   1.58478   1.64165   1.65199
 kpt#   8, nband= 40, wtk=  0.03125, kpt= -0.3750 -0.3750  0.1250 (reduced coord)
  -0.37505  -0.37022   0.03170   0.06003   0.11669   0.11970   0.15048   0.15565
   0.20957   0.25202   0.25668   0.25960   0.27286   0.28369   0.29105   0.29366
   0.34702   0.35836   0.52011   0.54803   0.68427   0.69604   0.76398   0.82209
   0.84106   0.90835   0.91828   1.09892   1.17313   1.21817   1.32852   1.36785
   1.38612   1.39182   1.42628   1.50000   1.50141   1.57054   1.61294   1.64039
 kpt#   9, nband= 40, wtk=  0.06250, kpt= -0.1250 -0.3750  0.1250 (reduced coord)
  -0.37697  -0.37495   0.05021   0.06008   0.11728   0.12833   0.13661   0.14615
   0.22631   0.24383   0.25753   0.26056   0.27566   0.28733   0.28973   0.29633
   0.33037   0.34466   0.54651   0.55926   0.69491   0.70452   0.75409   0.77719
   0.86591   0.89005   0.95644   1.04617   1.22380   1.25495   1.31368   1.37370
   1.38727   1.41142   1.41292   1.45791   1.47238   1.47884   1.57081   1.62156
 kpt#  10, nband= 40, wtk=  0.03125, kpt= -0.1250 -0.1250  0.1250 (reduced coord)
  -0.40735  -0.37846   0.04733   0.11602   0.11908   0.12767   0.17308   0.17625
   0.22879   0.23973   0.25370   0.25889   0.26373   0.27768   0.28290   0.28853
   0.32453   0.35697   0.44850   0.53113   0.69776   0.79403   0.84070   0.86182
   0.90693   0.93602   0.96654   1.12002   1.14241   1.15921   1.20482   1.21957
   1.26579   1.31406   1.36821   1.40667   1.40919   1.46399   1.52989   1.60944
 kpt#  11, nband= 40, wtk=  0.03125, kpt=  0.1250  0.1250  0.3750 (reduced coord)
  -0.41112  -0.37373   0.03726   0.11247   0.12293   0.14210   0.16510   0.17667
   0.23632   0.23789   0.24729   0.26410   0.27005   0.27081   0.28673   0.29106
   0.34053   0.34585   0.42488   0.54115   0.68052   0.79182   0.84181   0.84955
   0.92651   0.98876   1.04227   1.06498   1.08069   1.13895   1.19221   1.24587
   1.26349   1.33091   1.33610   1.38670   1.39157   1.44340   1.53416   1.61550
 kpt#  12, nband= 40, wtk=  0.06250, kpt=  0.3750  0.1250  0.3750 (reduced coord)
  -0.38780  -0.36362   0.06992   0.07264   0.08989   0.11695   0.13066   0.14093
   0.23982   0.25122   0.25829   0.26534   0.27080   0.27830   0.28943   0.29445
   0.32953   0.34867   0.51462   0.62824   0.66318   0.70333   0.74627   0.78981
   0.84063   0.89808   1.04062   1.07621   1.15786   1.18001   1.21223   1.38052
   1.41225   1.42282   1.42522   1.45559   1.47828   1.51074   1.52985   1.58750
 kpt#  13, nband= 40, wtk=  0.06250, kpt= -0.3750  0.1250  0.3750 (reduced coord)
  -0.36879  -0.36733   0.03177   0.06118   0.10621   0.11733   0.13185   0.14333
   0.22368   0.25270   0.25671   0.26942   0.27220   0.28631   0.29200   0.29500
   0.33971   0.34993   0.56272   0.56932   0.66027   0.69234   0.74498   0.76128
   0.84217   0.88843   0.95368   1.11547   1.18634   1.25917   1.32608   1.35525
   1.38498   1.40356   1.43203   1.47072   1.48865   1.52053   1.61605   1.68385
 kpt#  14, nband= 40, wtk=  0.06250, kpt= -0.1250  0.1250  0.3750 (reduced coord)
  -0.39379  -0.37897   0.05936   0.08409   0.12354   0.13154   0.14691   0.15601
   0.23343   0.24041   0.25203   0.26195   0.26832   0.28065   0.28741   0.29325
   0.32591   0.34406   0.49984   0.55005   0.71954   0.75067   0.77619   0.81593
   0.87883   0.91123   0.98223   1.02516   1.20956   1.23508   1.23774   1.26980
   1.37558   1.38481   1.40924   1.43910   1.44532   1.47305   1.49519   1.57633
 kpt#  15, nband= 40, wtk=  0.03125, kpt=  0.3750  0.3750  0.3750 (reduced coord)
  -0.38120  -0.36409   0.06048   0.06580   0.08710   0.12163   0.12805   0.14457
   0.22951   0.25321   0.26148   0.26561   0.27631   0.27699   0.29543   0.29592
   0.33424   0.33804   0.53979   0.62048   0.65575   0.70094   0.71659   0.78041
   0.87404   0.88349   0.99537   1.03119   1.21297   1.26211   1.28138   1.34615
   1.38709   1.41122   1.43373   1.45034   1.47064   1.52682   1.57492   1.59795
 kpt#  16, nband= 40, wtk=  0.06250, kpt= -0.3750  0.3750  0.3750 (reduced coord)
  -0.36536  -0.36455   0.05665   0.06572   0.09485   0.10058   0.11570   0.11891
   0.24809   0.25414   0.25604   0.26892   0.27453   0.28161   0.29210   0.29369
   0.33245   0.34670   0.61980   0.62791   0.64840   0.66968   0.70549   0.71118
   0.83418   0.85987   1.07966   1.08742   1.15534   1.15729   1.32833   1.41186
   1.42306   1.43746   1.44567   1.46668   1.50502   1.51096   1.61304   1.62540
 kpt#  17, nband= 40, wtk=  0.06250, kpt= -0.1250  0.3750  0.3750 (reduced coord)
  -0.37158  -0.36480   0.05567   0.05714   0.09817   0.11741   0.12034   0.12902
   0.23657   0.25378   0.26197   0.26527   0.27223   0.28473   0.29260   0.29548
   0.33562   0.33929   0.57820   0.62201   0.64752   0.69192   0.72173   0.73308
   0.84479   0.86715   1.01537   1.08052   1.16550   1.24148   1.36584   1.39153
   1.40346   1.40659   1.44184   1.45455   1.46091   1.47339   1.58332   1.70811
 kpt#  18, nband= 40, wtk=  0.03125, kpt= -0.3750 -0.3750  0.3750 (reduced coord)
  -0.38040  -0.36489   0.04473   0.06807   0.10807   0.12209   0.12398   0.14178
   0.22645   0.25388   0.25889   0.26763   0.27606   0.27946   0.29322   0.29352
   0.34222   0.35249   0.51277   0.57339   0.69132   0.69800   0.72061   0.83664
   0.85473   0.89614   0.95956   1.08270   1.14857   1.21611   1.30588   1.33908
   1.38378   1.41490   1.42921   1.44258   1.47796   1.58947   1.59380   1.67740
 kpt#  19, nband= 40, wtk=  0.06250, kpt= -0.1250 -0.3750  0.3750 (reduced coord)
  -0.38369  -0.36802   0.05450   0.06680   0.10694   0.11705   0.14031   0.14907
   0.22949   0.25141   0.25350   0.26269   0.27120   0.28398   0.28767   0.29665
   0.32757   0.34439   0.53671   0.60238   0.67287   0.71683   0.74019   0.77144
   0.85347   0.89533   0.96516   1.08370   1.16230   1.28389   1.30602   1.33953
   1.39944   1.41101   1.43451   1.45651   1.47359   1.48650   1.52961   1.56951
 kpt#  20, nband= 40, wtk=  0.03125, kpt= -0.1250 -0.1250  0.3750 (reduced coord)
  -0.39656  -0.39064   0.07532   0.09207   0.13281   0.13555   0.15143   0.15272
   0.23319   0.23968   0.25564   0.26314   0.26850   0.27698   0.28535   0.29372
   0.33171   0.34112   0.48166   0.50364   0.74476   0.77295   0.83266   0.83607
   0.89080   0.92801   1.01819   1.04900   1.11796   1.17356   1.18270   1.22859
   1.36563   1.38411   1.40115   1.42262   1.43557   1.46691   1.46902   1.52004
 Total charge density [el/Bohr^3]
,     Maximum=    1.6297E+00  at reduced coord.    0.0000    0.0000    0.5000
,Next maximum=    1.6297E+00  at reduced coord.    0.0000    0.0000    0.0000
,     Minimum=    1.1930E-02  at reduced coord.    0.2667    0.2333    0.1167
,Next minimum=    1.1930E-02  at reduced coord.    0.2333    0.2667    0.1167
 Spin up density      [el/Bohr^3]
,     Maximum=    9.5289E-01  at reduced coord.    0.0000    0.0000    0.0000
,Next maximum=    9.1974E-01  at reduced coord.    0.0000    0.0333    0.9833
,     Minimum=    5.7887E-03  at reduced coord.    0.2667    0.2333    0.1167
,Next minimum=    5.7887E-03  at reduced coord.    0.2333    0.2667    0.1167
 Spin down density    [el/Bohr^3]
,     Maximum=    9.5289E-01  at reduced coord.    0.0000    0.0000    0.5000
,Next maximum=    9.1974E-01  at reduced coord.    0.0000    0.9667    0.5167
,     Minimum=    5.7887E-03  at reduced coord.    0.7333    0.7333    0.3833
,Next minimum=    5.7887E-03  at reduced coord.    0.7667    0.7333    0.3833
 Magnetization (spin up - spin down) [el/Bohr^3]
,     Maximum=    2.7613E-01  at reduced coord.    0.0000    0.0000    0.0000
,Next maximum=    2.6645E-01  at reduced coord.    0.0000    0.0333    0.9833
,     Minimum=   -2.7613E-01  at reduced coord.    0.0000    0.0000    0.5000
,Next minimum=   -2.6645E-01  at reduced coord.    0.0000    0.0000    0.4833
 Relative magnetization (=zeta, between -1 and 1)
,     Maximum=    3.4185E-01  at reduced coord.    0.1667    0.8333    0.9167
,Next maximum=    3.4185E-01  at reduced coord.    0.8333    0.1667    0.9167
,     Minimum=   -3.4185E-01  at reduced coord.    0.1667    0.1667    0.4167
,Next minimum=   -3.4185E-01  at reduced coord.    0.8333    0.1667    0.4167

--------------------------------------------------------------------------------
 Components of total free energy (in Hartree) :

    Kinetic energy  =  2.34402263468250E+01
    Hartree energy  =  2.01980347348187E+01
    XC energy       = -1.88844742864374E+01
    Ewald energy    = -9.52410591238850E+01
    PspCore energy  =  3.88968900772322E+00
    Loc. psp. energy= -8.13323061130052E+01
    Spherical terms =  3.57574880382275E+01
    >>>>>>>>> Etotal= -1.12172401395733E+02

 "Double-counting" decomposition of free energy:
    Band energy     =  4.04331497708843E+00
    Ewald energy    = -9.52410591238850E+01
    PspCore energy  =  3.88968900772322E+00
    Dble-C XC-energy= -1.46922767518284E+01
    Spherical terms = -1.01695917768657E+01
    >>>> Etotal (DC)= -1.12169923667767E+02

  >Total energy in eV           = -3.05236627287730E+03
   >Total DC energy in eV        = -3.05229885047052E+03
--------------------------------------------------------------------------------

 Cartesian components of stress tensor (hartree/bohr^3)
  sigma(1 1)=  1.09038630E-03  sigma(3 2)= -7.94722856E-06
  sigma(2 2)=  1.09038630E-03  sigma(3 1)= -7.94722856E-06
  sigma(3 3)=  1.09038630E-03  sigma(2 1)=  7.94722856E-06

-Cartesian components of stress tensor (GPa)         [Pressure= -3.2080E+01 GPa]
- sigma(1 1)=  3.20802672E+01  sigma(3 2)= -2.33815497E-01
- sigma(2 2)=  3.20802672E+01  sigma(3 1)= -2.33815497E-01
- sigma(3 3)=  3.20802672E+01  sigma(2 1)=  2.33815497E-01

== END DATASET(S) ==============================================================
================================================================================
  
 -outvars: echo values of variables after computation  --------
     acell    7.9200000000E+00  7.9200000000E+00  7.9200000000E+00 Bohr
       amu    5.86900000E+01  1.59994000E+01
      ecut    1.50000000E+01 Hartree
    etotal   -1.1216992367E+02
     fcart    0.0000000000E+00  0.0000000000E+00  0.0000000000E+00
              0.0000000000E+00  0.0000000000E+00  0.0000000000E+00
              0.0000000000E+00  0.0000000000E+00  0.0000000000E+00
              0.0000000000E+00  0.0000000000E+00  0.0000000000E+00
       ixc         7
       kpt    1.25000000E-01  1.25000000E-01  1.25000000E-01
              3.75000000E-01  1.25000000E-01  1.25000000E-01
             -3.75000000E-01  1.25000000E-01  1.25000000E-01
             -1.25000000E-01  1.25000000E-01  1.25000000E-01
              3.75000000E-01  3.75000000E-01  1.25000000E-01
             -3.75000000E-01  3.75000000E-01  1.25000000E-01
             -1.25000000E-01  3.75000000E-01  1.25000000E-01
             -3.75000000E-01 -3.75000000E-01  1.25000000E-01
             -1.25000000E-01 -3.75000000E-01  1.25000000E-01
             -1.25000000E-01 -1.25000000E-01  1.25000000E-01
              1.25000000E-01  1.25000000E-01  3.75000000E-01
              3.75000000E-01  1.25000000E-01  3.75000000E-01
             -3.75000000E-01  1.25000000E-01  3.75000000E-01
             -1.25000000E-01  1.25000000E-01  3.75000000E-01
              3.75000000E-01  3.75000000E-01  3.75000000E-01
             -3.75000000E-01  3.75000000E-01  3.75000000E-01
             -1.25000000E-01  3.75000000E-01  3.75000000E-01
             -3.75000000E-01 -3.75000000E-01  3.75000000E-01
             -1.25000000E-01 -3.75000000E-01  3.75000000E-01
             -1.25000000E-01 -1.25000000E-01  3.75000000E-01
   kptrlen    2.24011428E+01
    kptopt         1
  kptrlatt    4  0  0   0  4  0   0  0  4
P    mkmem        20
     natom         4
     nband        40
     ngfft        20      20      40
   ngfftdg        30      30      60
      nkpt        20
    nspden         2
     nstep        50
      nsym        24
    ntypat         2
       occ    2.000000  2.000000  2.000000  2.000000  2.000000  2.000000
              2.000000  2.000000  2.000000  2.000000  2.000000  2.000000
              2.000000  2.000000  2.000000  2.000000  0.000000  0.000000
              0.000000  0.000000  0.000000  0.000000  0.000000  0.000000
              0.000000  0.000000  0.000000  0.000000  0.000000  0.000000
              0.000000  0.000000  0.000000  0.000000  0.000000  0.000000
              0.000000  0.000000  0.000000  0.000000
 pawecutdg    3.00000000E+01 Hartree
 prtdensph         1
    ratsph    2.31080032E+00 Bohr
     rprim    0.0000000000E+00  5.0000000000E-01  5.0000000000E-01
              5.0000000000E-01  0.0000000000E+00  5.0000000000E-01
              1.0000000000E+00  1.0000000000E+00  0.0000000000E+00
    shiftk    5.00000000E-01  5.00000000E-01  5.00000000E-01
   spgroup       166
    spinat    0.0000000000E+00  0.0000000000E+00  1.0000000000E+00
              0.0000000000E+00  0.0000000000E+00 -1.0000000000E+00
              0.0000000000E+00  0.0000000000E+00  0.0000000000E+00
              0.0000000000E+00  0.0000000000E+00  0.0000000000E+00
    strten    1.0903863020E-03  1.0903863020E-03  1.0903863020E-03
             -7.9472285557E-06 -7.9472285557E-06  7.9472285557E-06
    symafm    1 -1  1  -1  1 -1   1 -1  1      -1  1 -1   1 -1  1  -1  1 -1
              1 -1  1  -1  1 -1
    symrel    1  0  0   0  1  0   0  0  1       1  0  0   0  1  0   0  0  1
             -1  0  0   0 -1  0   0  0 -1      -1  0  0   0 -1  0   0  0 -1
              0  1  0   1  0  0   0  0  1       0  1  0   1  0  0   0  0  1
              0 -1  0  -1  0  0   0  0 -1       0 -1  0  -1  0  0   0  0 -1
              0 -1  0   1 -1  0   0 -2  1       0 -1  0   1 -1  0   0 -2  1
              0  1  0  -1  1  0   0  2 -1       0  1  0  -1  1  0   0  2 -1
              1 -1  0   0 -1  0   0 -2  1       1 -1  0   0 -1  0   0 -2  1
             -1  1  0   0  1  0   0  2 -1      -1  1  0   0  1  0   0  2 -1
             -1  1  0  -1  0  0  -2  0  1      -1  1  0  -1  0  0  -2  0  1
              1 -1  0   1  0  0   2  0 -1       1 -1  0   1  0  0   2  0 -1
             -1  0  0  -1  1  0  -2  0  1      -1  0  0  -1  1  0  -2  0  1
              1  0  0   1 -1  0   2  0 -1       1  0  0   1 -1  0   2  0 -1
     tnons    0.0000000  0.0000000  0.0000000     0.0000000  0.0000000  0.5000000
              0.0000000  0.0000000  0.0000000     0.0000000  0.0000000  0.5000000
              0.0000000  0.0000000  0.0000000     0.0000000  0.0000000  0.5000000
              0.0000000  0.0000000  0.0000000     0.0000000  0.0000000  0.5000000
              0.0000000  0.0000000  0.0000000     0.0000000  0.0000000  0.5000000
              0.0000000  0.0000000  0.0000000     0.0000000  0.0000000  0.5000000
              0.0000000  0.0000000  0.0000000     0.0000000  0.0000000  0.5000000
              0.0000000  0.0000000  0.0000000     0.0000000  0.0000000  0.5000000
              0.0000000  0.0000000  0.0000000     0.0000000  0.0000000  0.5000000
              0.0000000  0.0000000  0.0000000     0.0000000  0.0000000  0.5000000
              0.0000000  0.0000000  0.0000000     0.0000000  0.0000000  0.5000000
              0.0000000  0.0000000  0.0000000     0.0000000  0.0000000  0.5000000
    toldfe    1.00000000E-05 Hartree
     typat    1  1  2  2
    useylm         1
       wtk      0.03125    0.06250    0.06250    0.06250    0.03125    0.06250
                0.06250    0.03125    0.06250    0.03125    0.03125    0.06250
                0.06250    0.06250    0.03125    0.06250    0.06250    0.03125
                0.06250    0.03125
    xangst    0.0000000000E+00  0.0000000000E+00  0.0000000000E+00
              2.0955417460E+00  2.0955417460E+00  0.0000000000E+00
              2.0955417460E+00  2.0955417460E+00  2.0955417460E+00
              4.1910834920E+00  4.1910834920E+00  2.0955417460E+00
     xcart    0.0000000000E+00  0.0000000000E+00  0.0000000000E+00
              3.9600000000E+00  3.9600000000E+00  0.0000000000E+00
              3.9600000000E+00  3.9600000000E+00  3.9600000000E+00
              7.9200000000E+00  7.9200000000E+00  3.9600000000E+00
      xred    0.0000000000E+00  0.0000000000E+00  0.0000000000E+00
              0.0000000000E+00  0.0000000000E+00  5.0000000000E-01
              5.0000000000E-01  5.0000000000E-01  2.5000000000E-01
              5.0000000000E-01  5.0000000000E-01  7.5000000000E-01
     znucl     28.00000    8.00000

================================================================================

- Total cpu        time (s,m,h):         78.9        1.31      0.022
- Total wall clock time (s,m,h):         78.9        1.31      0.022

- For major independent code sections, cpu and wall times (sec),
- as well as % of the total time and number of calls 

- routine                 cpu     %       wall     %      number of calls 
-                                                          (-1=no count)
- fourwf(pot)           32.090  40.7     32.205  40.8          75263
- nonlop(apply)         19.895  25.2     19.886  25.2          75263
- projbd                 6.926   8.8      6.960   8.8          57663
- vtowfk(ssdiag)         6.920   8.8      6.914   8.8             -1
- fourwf(den)            1.603   2.0      1.542   2.0           6400
- nonlop(forces)         1.424   1.8      1.482   1.9           6400
- getghc-other           1.228   1.6      1.172   1.5             -1
- pspini                 1.188   1.5      1.188   1.5              1
- xc:pot/=fourdp         0.916   1.2      0.910   1.2            202
- pawdenpot              0.504   0.6      0.504   0.6             20
- pawinit                0.494   0.6      0.494   0.6              2
- 55   others            2.871   3.6      2.866   3.6

- subtotal              76.059  96.4     76.123  96.5

================================================================================

 Calculation completed.
.Delivered    0 WARNINGs and   0 COMMENTs to log file.
+Overall time at end (sec) : cpu=         78.9  wall=         78.9
