
.Version 5.5.3  of ABINIT 
.(sequential version, prepared for a x86_64_linux_intel9.1 computer) 

.Copyright (C) 1998-2007 ABINIT group . 
 ABINIT comes with ABSOLUTELY NO WARRANTY.
 It is free software, and you are welcome to redistribute it
 under certain conditions (GNU General Public License,
 see ~abinit/COPYING or http://www.gnu.org/copyleft/gpl.txt).

 ABINIT is a project of the Universite Catholique de Louvain,
 Corning Inc. and other collaborators, see ~abinit/doc/developers/contributors.txt .
 Please read ~abinit/doc/users/acknowledgments.html for suggested
 acknowledgments of the ABINIT effort.
 For more information, see http://www.abinit.org .

.Starting date : Thu 22 May 2008.
  
- input  file    -> tldau_3.in
- output file    -> tldau_3.out
- root for input  files -> tldau_3i
- root for output files -> tldau_3o


 Magnetic group, Shubnikov type IV
 Fedorov space group R-3 m (#166)
 Magnetic Bravais lattice hR_I (rhombohedral, centered magnetic, #31)
================================================================================
 Values of the parameters that define the memory need of the present run
   intxc =         0  ionmov =         0    iscf =        17 xclevel =         1
  lmnmax =        18   lnmax =         6   mband =        40  mffmem =         1
P  mgfft =        40   mkmem =        20 mpssoang=         3     mpw =       698
  mqgrid =      3001   natom =         4    nfft =     16000    nkpt =        20
  nloalg =         4  nspden =         2 nspinor =         1  nsppol =         1
    nsym =        24  n1xccc =         1  ntypat =         2  occopt =         1
 PAW method is used; the additional fine FFT grid is defined by:
   mgfftf=        60    nfftf =     54000
================================================================================
P This job should need less than                      47.839 Mbytes of memory.
  Rough estimation (10% accuracy) of disk space for files :
  WF disk file :      8.523 Mbytes ; DEN or POT disk file :      0.414 Mbytes.
================================================================================

 -outvars: echo values of preprocessed input variables --------
     acell    7.9200000000E+00  7.9200000000E+00  7.9200000000E+00 Bohr
       amu    5.86900000E+01  1.59994000E+01
      ecut    1.50000000E+01 Hartree
       ixc         7
       kpt    1.25000000E-01  1.25000000E-01  1.25000000E-01
              3.75000000E-01  1.25000000E-01  1.25000000E-01
             -3.75000000E-01  1.25000000E-01  1.25000000E-01
             -1.25000000E-01  1.25000000E-01  1.25000000E-01
              3.75000000E-01  3.75000000E-01  1.25000000E-01
             -3.75000000E-01  3.75000000E-01  1.25000000E-01
             -1.25000000E-01  3.75000000E-01  1.25000000E-01
             -3.75000000E-01 -3.75000000E-01  1.25000000E-01
             -1.25000000E-01 -3.75000000E-01  1.25000000E-01
             -1.25000000E-01 -1.25000000E-01  1.25000000E-01
              1.25000000E-01  1.25000000E-01  3.75000000E-01
              3.75000000E-01  1.25000000E-01  3.75000000E-01
             -3.75000000E-01  1.25000000E-01  3.75000000E-01
             -1.25000000E-01  1.25000000E-01  3.75000000E-01
              3.75000000E-01  3.75000000E-01  3.75000000E-01
             -3.75000000E-01  3.75000000E-01  3.75000000E-01
             -1.25000000E-01  3.75000000E-01  3.75000000E-01
             -3.75000000E-01 -3.75000000E-01  3.75000000E-01
             -1.25000000E-01 -3.75000000E-01  3.75000000E-01
             -1.25000000E-01 -1.25000000E-01  3.75000000E-01
   kptrlen    2.24011428E+01
    kptopt         1
  kptrlatt    4  0  0   0  4  0   0  0  4
P    mkmem        20
     natom         4
     nband        40
     ngfft        20      20      40
   ngfftdg        30      30      60
      nkpt        20
    nspden         2
     nstep        50
      nsym        24
    ntypat         2
       occ    2.000000  2.000000  2.000000  2.000000  2.000000  2.000000
              2.000000  2.000000  2.000000  2.000000  2.000000  2.000000
              2.000000  2.000000  2.000000  2.000000  0.000000  0.000000
              0.000000  0.000000  0.000000  0.000000  0.000000  0.000000
              0.000000  0.000000  0.000000  0.000000  0.000000  0.000000
              0.000000  0.000000  0.000000  0.000000  0.000000  0.000000
              0.000000  0.000000  0.000000  0.000000
 pawecutdg    3.00000000E+01 Hartree
 usedmatpu         5
   usepawu         1
     jpawu    2.93994603E-02  0.00000000E+00
     lpawu         2      -1
     upawu    2.93994603E-01  0.00000000E+00
  dmatpawu    9.00360000E-01  0.00000000E+00 -3.00000000E-05
              0.00000000E+00  0.00000000E+00  0.00000000E+00
              9.00360000E-01 -1.00000000E-05  0.00000000E+00
              2.00000000E-05 -3.00000000E-05 -1.00000000E-05
              9.13090000E-01 -1.00000000E-05  0.00000000E+00
              0.00000000E+00  0.00000000E+00 -1.00000000E-05
              9.00360000E-01 -2.00000000E-05  0.00000000E+00
              2.00000000E-05  0.00000000E+00 -2.00000000E-05
              9.13090000E-01  8.96770000E-01 -1.00000000E-05
              1.10000000E-04 -1.00000000E-05  0.00000000E+00
             -1.00000000E-05  8.96770000E-01  6.00000000E-05
              1.00000000E-05 -1.00000000E-04  1.10000000E-04
              6.00000000E-05  1.15800000E-01  6.00000000E-05
              0.00000000E+00 -1.00000000E-05  1.00000000E-05
              6.00000000E-05  8.96770000E-01  1.00000000E-04
              0.00000000E+00 -1.00000000E-04  0.00000000E+00
              1.00000000E-04  1.15800000E-01
 prtdensph         1
    ratsph    2.31080032E+00 Bohr
     rprim    0.0000000000E+00  5.0000000000E-01  5.0000000000E-01
              5.0000000000E-01  0.0000000000E+00  5.0000000000E-01
              1.0000000000E+00  1.0000000000E+00  0.0000000000E+00
    shiftk    5.00000000E-01  5.00000000E-01  5.00000000E-01
   spgroup       166
    spinat    0.0000000000E+00  0.0000000000E+00  1.0000000000E+00
              0.0000000000E+00  0.0000000000E+00 -1.0000000000E+00
              0.0000000000E+00  0.0000000000E+00  0.0000000000E+00
              0.0000000000E+00  0.0000000000E+00  0.0000000000E+00
    symafm    1 -1  1  -1  1 -1   1 -1  1      -1  1 -1   1 -1  1  -1  1 -1
              1 -1  1  -1  1 -1
    symrel    1  0  0   0  1  0   0  0  1       1  0  0   0  1  0   0  0  1
             -1  0  0   0 -1  0   0  0 -1      -1  0  0   0 -1  0   0  0 -1
              0  1  0   1  0  0   0  0  1       0  1  0   1  0  0   0  0  1
              0 -1  0  -1  0  0   0  0 -1       0 -1  0  -1  0  0   0  0 -1
              0 -1  0   1 -1  0   0 -2  1       0 -1  0   1 -1  0   0 -2  1
              0  1  0  -1  1  0   0  2 -1       0  1  0  -1  1  0   0  2 -1
              1 -1  0   0 -1  0   0 -2  1       1 -1  0   0 -1  0   0 -2  1
             -1  1  0   0  1  0   0  2 -1      -1  1  0   0  1  0   0  2 -1
             -1  1  0  -1  0  0  -2  0  1      -1  1  0  -1  0  0  -2  0  1
              1 -1  0   1  0  0   2  0 -1       1 -1  0   1  0  0   2  0 -1
             -1  0  0  -1  1  0  -2  0  1      -1  0  0  -1  1  0  -2  0  1
              1  0  0   1 -1  0   2  0 -1       1  0  0   1 -1  0   2  0 -1
     tnons    0.0000000  0.0000000  0.0000000     0.0000000  0.0000000  0.5000000
              0.0000000  0.0000000  0.0000000     0.0000000  0.0000000  0.5000000
              0.0000000  0.0000000  0.0000000     0.0000000  0.0000000  0.5000000
              0.0000000  0.0000000  0.0000000     0.0000000  0.0000000  0.5000000
              0.0000000  0.0000000  0.0000000     0.0000000  0.0000000  0.5000000
              0.0000000  0.0000000  0.0000000     0.0000000  0.0000000  0.5000000
              0.0000000  0.0000000  0.0000000     0.0000000  0.0000000  0.5000000
              0.0000000  0.0000000  0.0000000     0.0000000  0.0000000  0.5000000
              0.0000000  0.0000000  0.0000000     0.0000000  0.0000000  0.5000000
              0.0000000  0.0000000  0.0000000     0.0000000  0.0000000  0.5000000
              0.0000000  0.0000000  0.0000000     0.0000000  0.0000000  0.5000000
              0.0000000  0.0000000  0.0000000     0.0000000  0.0000000  0.5000000
    toldfe    1.00000000E-05 Hartree
     typat    1  1  2  2
    useylm         1
       wtk      0.03125    0.06250    0.06250    0.06250    0.03125    0.06250
                0.06250    0.03125    0.06250    0.03125    0.03125    0.06250
                0.06250    0.06250    0.03125    0.06250    0.06250    0.03125
                0.06250    0.03125
    xangst    0.0000000000E+00  0.0000000000E+00  0.0000000000E+00
              2.0955417460E+00  2.0955417460E+00  0.0000000000E+00
              2.0955417460E+00  2.0955417460E+00  2.0955417460E+00
              4.1910834920E+00  4.1910834920E+00  2.0955417460E+00
     xcart    0.0000000000E+00  0.0000000000E+00  0.0000000000E+00
              3.9600000000E+00  3.9600000000E+00  0.0000000000E+00
              3.9600000000E+00  3.9600000000E+00  3.9600000000E+00
              7.9200000000E+00  7.9200000000E+00  3.9600000000E+00
      xred    0.0000000000E+00  0.0000000000E+00  0.0000000000E+00
              0.0000000000E+00  0.0000000000E+00  5.0000000000E-01
              5.0000000000E-01  5.0000000000E-01  2.5000000000E-01
              5.0000000000E-01  5.0000000000E-01  7.5000000000E-01
     znucl     28.00000    8.00000

================================================================================

 chkinp: Checking input parameters for consistency.

================================================================================
== DATASET  1 ==================================================================

 Real(R)+Recip(G) space primitive vectors, cartesian coordinates (Bohr,Bohr^-1):
 R(1)=  0.0000000  3.9600000  3.9600000  G(1)= -0.1262626  0.1262626  0.1262626
 R(2)=  3.9600000  0.0000000  3.9600000  G(2)=  0.1262626 -0.1262626  0.1262626
 R(3)=  7.9200000  7.9200000  0.0000000  G(3)=  0.0631313  0.0631313 -0.0631313
 Unit cell volume ucvol=  2.4839654E+02 bohr^3
 Angles (23,13,12)=  6.00000000E+01  6.00000000E+01  6.00000000E+01 degrees

 Coarse grid specifications (used for wave-functions):

 getcut: wavevector=  0.0000  0.0000  0.0000  ngfft=  20  20  40
         ecut(hartree)=     15.000   => boxcut(ratio)=   2.04837

 Fine grid specifications (used for densities):

 getcut: wavevector=  0.0000  0.0000  0.0000  ngfft=  30  30  60
         ecut(hartree)=     30.000   => boxcut(ratio)=   2.17444

--- Pseudopotential description ------------------------------------------------
- pspini: atom type   1  psp file is ../PAW/ni_atompaw.paw
- pspatm: opening atomic psp file    ../PAW/ni_atompaw.paw
 Paw atomic data for element Ni - Generated by AtomPAW (N. Holzwarth) + AtomPAW2Abinit v3.1.1
  28.00000  10.00000  20070601                znucl, zion, pspdat
    7    7    2    0      1080   0.00000      pspcod,pspxc,lmax,lloc,mmax,r2well
 Pseudopotential format is: paw3
 basis_size (lnmax)=  6 (lmn_size= 18), orbitals=   0   0   1   1   2   2
 Spheres core radius: rc_sph= 2.31080032
 4 radial meshes are used:
  - mesh 1: r(i)=AA*[exp(BB*(i-1))-1], size=1080 , AA= 0.29784E-03 BB= 0.83395E-02
  - mesh 2: r(i)=AA*[exp(BB*(i-1))-1], size=1075 , AA= 0.29784E-03 BB= 0.83395E-02
  - mesh 3: r(i)=AA*[exp(BB*(i-1))-1], size=1165 , AA= 0.29784E-03 BB= 0.83395E-02
  - mesh 4: r(i)=AA*[exp(BB*(i-1))-1], size=1250 , AA= 0.29784E-03 BB= 0.83395E-02
 Shapefunction is BESSEL type: shapef(r,l)=aa(1,l)*jl(q(1,l)*r)+aa(2,l)*jl(q(2,l)*r)
 Radius for shape functions =  2.00531667
 Radial grid used for partial waves is grid 1
 Radial grid used for projectors is grid 2
 Radial grid used for (t)core density is grid 3
 Radial grid used for Vloc is grid 4
 pspatm: atomic psp has been read  and splines computed

- pspini: atom type   2  psp file is ../PAW/O_LDA_abinit
- pspatm: opening atomic psp file    ../PAW/O_LDA_abinit
 Paw atomic data for element O - Generated by AtomPAW (N. Holzwarth) + AtomPAW2Abinit v3.1.1
   8.00000   6.00000  20070409                znucl, zion, pspdat
    7    7    1    0      1311   0.00000      pspcod,pspxc,lmax,lloc,mmax,r2well
 Pseudopotential format is: paw3
 basis_size (lnmax)=  4 (lmn_size=  8), orbitals=   0   0   1   1
 Spheres core radius: rc_sph= 1.41465230
 4 radial meshes are used:
  - mesh 1: r(i)=AA*[exp(BB*(i-1))-1], size=1311 , AA= 0.72565E-03 BB= 0.58052E-02
  - mesh 2: r(i)=AA*[exp(BB*(i-1))-1], size=1306 , AA= 0.72565E-03 BB= 0.58052E-02
  - mesh 3: r(i)=AA*[exp(BB*(i-1))-1], size=1329 , AA= 0.72565E-03 BB= 0.58052E-02
  - mesh 4: r(i)=AA*[exp(BB*(i-1))-1], size=1642 , AA= 0.72565E-03 BB= 0.58052E-02
 Shapefunction is SIN type: shapef(r)=[sin(pi*r/rshp)/(pi*r/rshp)]**2
 Radius for shape functions = sphere core radius
 Radial grid used for partial waves is grid 1
 Radial grid used for projectors is grid 2
 Radial grid used for (t)core density is grid 3
 Radial grid used for Vloc is grid 4
 pspatm: atomic psp has been read  and splines computed

   9.66185307E+02                                ecore*ucvol(ha*bohr**3)
--------------------------------------------------------------------------------

P newkpt: treating     40 bands with npw=     682 for ikpt=   1
P newkpt: treating     40 bands with npw=     689 for ikpt=   2
P newkpt: treating     40 bands with npw=     694 for ikpt=   3
P newkpt: treating     40 bands with npw=     687 for ikpt=   4
P newkpt: treating     40 bands with npw=     683 for ikpt=   5
P newkpt: treating     40 bands with npw=     698 for ikpt=   6
P newkpt: treating     40 bands with npw=     694 for ikpt=   7
P newkpt: treating     40 bands with npw=     689 for ikpt=   8
P newkpt: treating     40 bands with npw=     681 for ikpt=   9
P newkpt: treating     40 bands with npw=     686 for ikpt=  10
P newkpt: treating     40 bands with npw=     680 for ikpt=  11
P newkpt: treating     40 bands with npw=     688 for ikpt=  12
P newkpt: treating     40 bands with npw=     693 for ikpt=  13
P newkpt: treating     40 bands with npw=     681 for ikpt=  14
P newkpt: treating     40 bands with npw=     690 for ikpt=  15
P newkpt: treating     40 bands with npw=     695 for ikpt=  16
P newkpt: treating     40 bands with npw=     692 for ikpt=  17
P newkpt: treating     40 bands with npw=     696 for ikpt=  18
P newkpt: treating     40 bands with npw=     685 for ikpt=  19
P newkpt: treating     40 bands with npw=     679 for ikpt=  20
 
 setup2: Arith. and geom. avg. npw (full set) are     688.719     688.696


******************************************
 LDA+U Method used: FLL
******************************************

================================================================================

     iter   Etot(hartree)      deltaE(h)  residm     nres2    diffor    maxfor
 ETOT  1  -118.06624788289    -1.181E+02 6.444E+01 2.073E+03 0.000E+00 0.000E+00
 ETOT  2  -120.70161940876    -2.635E+00 6.807E+00 9.438E+02 4.980E-32 4.980E-32
 ETOT  3  -111.87309137528     8.829E+00 1.073E+01 1.138E+02 4.980E-32 0.000E+00
 ETOT  4  -111.90198447974    -2.889E-02 3.805E-01 8.106E+00 4.980E-32 4.980E-32
 ETOT  5  -112.26360755663    -3.616E-01 2.275E-01 3.018E+01 4.980E-32 0.000E+00
 ETOT  6  -111.86384648834     3.998E-01 2.096E-01 1.318E+00 7.470E-32 7.470E-32
 ETOT  7  -111.89832964833    -3.448E-02 1.351E-01 2.896E-01 7.470E-32 0.000E+00
 ETOT  8  -111.89999994222    -1.670E-03 1.738E-02 6.816E-02 0.000E+00 0.000E+00
 ETOT  9  -111.90095852297    -9.586E-04 1.349E-02 7.176E-02 0.000E+00 0.000E+00
 ETOT 10  -111.90130007546    -3.416E-04 9.553E-03 6.685E-02 0.000E+00 0.000E+00
 ETOT 11  -111.90139639593    -9.632E-05 6.703E-03 1.501E-02 0.000E+00 0.000E+00
 ETOT 12  -111.90161291634    -2.165E-04 3.841E-03 1.434E-03 4.980E-32 4.980E-32
 ETOT 13  -111.90172368369    -1.108E-04 3.476E-03 3.138E-03 9.960E-32 4.980E-32
 ETOT 14  -111.90171676143     6.922E-06 2.129E-03 1.450E-03 6.640E-32 4.980E-32
 ETOT 15  -111.90171861589    -1.854E-06 1.765E-03 1.411E-03 9.130E-32 5.810E-32

 At SCF step   15, etot is converged :
  for the second time, diff in etot=  1.854E-06 < toldfe=  1.000E-05

 Cartesian components of stress tensor (hartree/bohr^3)
  sigma(1 1)=  9.26062426E-04  sigma(3 2)= -9.21812554E-07
  sigma(2 2)=  9.26062426E-04  sigma(3 1)= -9.21812554E-07
  sigma(3 3)=  9.26062426E-04  sigma(2 1)=  9.21812554E-07
 

 Integrated total density in atomic spheres:
 -------------------------------------------
 Atom  Sphere radius  Integrated_up_density  Integrated_dn_density  Total(up+dn)   Diff(up-dn)
    1        2.31080             5.31513925             3.60226830    8.91740755    1.71287094
    2        2.31080             3.60226830             5.31513925    8.91740755   -1.71287094
    3        2.31080             3.49165455             3.49165455    6.98330910    0.00000000
    4        2.31080             3.49165455             3.49165455    6.98330910    0.00000000
 Note: Diff(up-dn) can be considered as a rough approximation of a local magnetic moment.



 PAW TEST:
 ==== Compensation charge inside spheres ============
 The following values must be close...
 Compensation charge over spherical meshes =     13.557560306360878
 Compensation charge over fine fft grid    =     13.546115037729495

 ==== Results concerning PAW augmentation regions ====
 
 Total pseudopotential strength Dij (hartree):
 Atom #  1 - Spin component 1
   0.39397  -0.03806   0.00000   0.00000   0.00000   0.00000   0.00000   0.00000   0.00000   0.00000   0.00000   0.00000 ...
  -0.03806   9.67128   0.00000   0.00000   0.00000   0.00000   0.00000   0.00000   0.00001  -0.00001   0.00000  -0.00001 ...
   0.00000   0.00000   0.04275   0.00000   0.00000   0.02360   0.00000   0.00000   0.00000   0.00000   0.00000   0.00000 ...
   0.00000   0.00000   0.00000   0.04275   0.00000   0.00000   0.02360   0.00000   0.00000   0.00000   0.00000   0.00000 ...
   0.00000   0.00000   0.00000   0.00000   0.04275   0.00000   0.00000   0.02360   0.00000   0.00000   0.00000   0.00000 ...
   0.00000   0.00000   0.02360   0.00000   0.00000  21.87132   0.00003  -0.00003   0.00000   0.00000   0.00000   0.00000 ...
   0.00000   0.00000   0.00000   0.02360   0.00000   0.00003  21.87132   0.00003   0.00000   0.00000   0.00000   0.00000 ...
   0.00000   0.00000   0.00000   0.00000   0.02360  -0.00003   0.00003  21.87132   0.00000   0.00000   0.00000   0.00000 ...
   0.00000   0.00001   0.00000   0.00000   0.00000   0.00000   0.00000   0.00000  -0.14225   0.00001   0.00004   0.00001 ...
   0.00000  -0.00001   0.00000   0.00000   0.00000   0.00000   0.00000   0.00000   0.00001  -0.14225   0.00002  -0.00001 ...
   0.00000   0.00000   0.00000   0.00000   0.00000   0.00000   0.00000   0.00000   0.00004   0.00002  -0.19104   0.00002 ...
   0.00000  -0.00001   0.00000   0.00000   0.00000   0.00000   0.00000   0.00000   0.00001  -0.00001   0.00002  -0.14225 ...
   ...  only 12  components have been written...
 Atom #  1 - Spin component 2
   0.38385  -0.03921   0.00000   0.00000   0.00000   0.00000   0.00000   0.00000   0.00000   0.00000   0.00000   0.00000 ...
  -0.03921   9.70748   0.00000   0.00000   0.00000   0.00000   0.00000   0.00000   0.00000   0.00000   0.00000   0.00000 ...
   0.00000   0.00000   0.04210   0.00000   0.00000   0.04147   0.00000   0.00000   0.00000   0.00000   0.00000   0.00000 ...
   0.00000   0.00000   0.00000   0.04210   0.00000   0.00000   0.04147   0.00000   0.00000   0.00000   0.00000   0.00000 ...
   0.00000   0.00000   0.00000   0.00000   0.04210   0.00000   0.00000   0.04147   0.00000   0.00000   0.00000   0.00000 ...
   0.00000   0.00000   0.04147   0.00000   0.00000  21.83999   0.00005  -0.00005   0.00000   0.00000   0.00000   0.00000 ...
   0.00000   0.00000   0.00000   0.04147   0.00000   0.00005  21.83999   0.00005   0.00000   0.00000   0.00000   0.00000 ...
   0.00000   0.00000   0.00000   0.00000   0.04147  -0.00005   0.00005  21.83999   0.00000   0.00000   0.00000   0.00000 ...
   0.00000   0.00000   0.00000   0.00000   0.00000   0.00000   0.00000   0.00000  -0.12054   0.00002  -0.00005   0.00002 ...
   0.00000   0.00000   0.00000   0.00000   0.00000   0.00000   0.00000   0.00000   0.00002  -0.12054  -0.00003  -0.00002 ...
   0.00000   0.00000   0.00000   0.00000   0.00000   0.00000   0.00000   0.00000  -0.00005  -0.00003   0.08589  -0.00003 ...
   0.00000   0.00000   0.00000   0.00000   0.00000   0.00000   0.00000   0.00000   0.00002  -0.00002  -0.00003  -0.12054 ...
   ...  only 12  components have been written...
 Atom #  4 - Spin component 1
   0.87634  -2.69401  -0.00012   0.00012  -0.00012   0.00082  -0.00082   0.00082
  -2.69401   8.23447   0.00035  -0.00035   0.00035  -0.00230   0.00230  -0.00230
  -0.00012   0.00035  -0.19834  -0.00002   0.00002   0.38944   0.00007  -0.00007
   0.00012  -0.00035  -0.00002  -0.19834  -0.00002   0.00007   0.38944   0.00007
  -0.00012   0.00035   0.00002  -0.00002  -0.19834  -0.00007   0.00007   0.38944
   0.00082  -0.00230   0.38944   0.00007  -0.00007   2.21615  -0.00034   0.00034
  -0.00082   0.00230   0.00007   0.38944   0.00007  -0.00034   2.21615  -0.00034
   0.00082  -0.00230  -0.00007   0.00007   0.38944   0.00034  -0.00034   2.21615
 Atom #  4 - Spin component 2
   0.87634  -2.69401   0.00012  -0.00012   0.00012  -0.00082   0.00082  -0.00082
  -2.69401   8.23447  -0.00035   0.00035  -0.00035   0.00230  -0.00230   0.00230
   0.00012  -0.00035  -0.19834  -0.00002   0.00002   0.38944   0.00007  -0.00007
  -0.00012   0.00035  -0.00002  -0.19834  -0.00002   0.00007   0.38944   0.00007
   0.00012  -0.00035   0.00002  -0.00002  -0.19834  -0.00007   0.00007   0.38944
  -0.00082   0.00230   0.38944   0.00007  -0.00007   2.21615  -0.00034   0.00034
   0.00082  -0.00230   0.00007   0.38944   0.00007  -0.00034   2.21615  -0.00034
  -0.00082   0.00230  -0.00007   0.00007   0.38944   0.00034  -0.00034   2.21615
 
 
 Augmentation waves occupancies Rhoij:
 Atom #  1 - Spin component 1
   0.45730   0.00193   0.00000   0.00000   0.00000   0.00000   0.00000   0.00000   0.00002  -0.00002   0.00000  -0.00002 ...
   0.00193   0.00002   0.00000   0.00000   0.00000   0.00000   0.00000   0.00000   0.00000   0.00000   0.00000   0.00000 ...
   0.00000   0.00000   0.57825  -0.00062   0.00062   0.00119   0.00000   0.00000   0.00000   0.00000   0.00000   0.00000 ...
   0.00000   0.00000  -0.00062   0.57825  -0.00062   0.00000   0.00119   0.00000   0.00000   0.00000   0.00000   0.00000 ...
   0.00000   0.00000   0.00062  -0.00062   0.57825   0.00000   0.00000   0.00119   0.00000   0.00000   0.00000   0.00000 ...
   0.00000   0.00000   0.00119   0.00000   0.00000   0.00000   0.00000   0.00000   0.00000   0.00000   0.00000   0.00000 ...
   0.00000   0.00000   0.00000   0.00119   0.00000   0.00000   0.00000   0.00000   0.00000   0.00000   0.00000   0.00000 ...
   0.00000   0.00000   0.00000   0.00000   0.00119   0.00000   0.00000   0.00000   0.00000   0.00000   0.00000   0.00000 ...
   0.00002   0.00000   0.00000   0.00000   0.00000   0.00000   0.00000   0.00000   0.95211  -0.00003  -0.00004  -0.00003 ...
  -0.00002   0.00000   0.00000   0.00000   0.00000   0.00000   0.00000   0.00000  -0.00003   0.95211  -0.00002   0.00003 ...
   0.00000   0.00000   0.00000   0.00000   0.00000   0.00000   0.00000   0.00000  -0.00004  -0.00002   0.92520  -0.00002 ...
  -0.00002   0.00000   0.00000   0.00000   0.00000   0.00000   0.00000   0.00000  -0.00003   0.00003  -0.00002   0.95211 ...
   ...  only 12  components have been written...
 Atom #  1 - Spin component 2
   0.45855   0.00247   0.00000   0.00000   0.00000   0.00000   0.00000   0.00000   0.00003  -0.00003   0.00000  -0.00003 ...
   0.00247   0.00002   0.00000   0.00000   0.00000   0.00000   0.00000   0.00000   0.00000   0.00000   0.00000   0.00000 ...
   0.00000   0.00000   0.58460   0.00020  -0.00020   0.00134   0.00000   0.00000   0.00000   0.00000   0.00000   0.00000 ...
   0.00000   0.00000   0.00020   0.58460   0.00020   0.00000   0.00134   0.00000   0.00000   0.00000   0.00000   0.00000 ...
   0.00000   0.00000  -0.00020   0.00020   0.58460   0.00000   0.00000   0.00134   0.00000   0.00000   0.00000   0.00000 ...
   0.00000   0.00000   0.00134   0.00000   0.00000   0.00000   0.00000   0.00000   0.00000   0.00000   0.00000   0.00000 ...
   0.00000   0.00000   0.00000   0.00134   0.00000   0.00000   0.00000   0.00000   0.00000   0.00000   0.00000   0.00000 ...
   0.00000   0.00000   0.00000   0.00000   0.00134   0.00000   0.00000   0.00000   0.00000   0.00000   0.00000   0.00000 ...
   0.00003   0.00000   0.00000   0.00000   0.00000   0.00000   0.00000   0.00000   0.98949   0.00000   0.00018   0.00000 ...
  -0.00003   0.00000   0.00000   0.00000   0.00000   0.00000   0.00000   0.00000   0.00000   0.98949   0.00009   0.00000 ...
   0.00000   0.00000   0.00000   0.00000   0.00000   0.00000   0.00000   0.00000   0.00018   0.00009   0.26063   0.00009 ...
  -0.00003   0.00000   0.00000   0.00000   0.00000   0.00000   0.00000   0.00000   0.00000   0.00000   0.00009   0.98949 ...
   ...  only 12  components have been written...
 Atom #  4 - Spin component 1
   0.96149   0.00978   0.00901  -0.00901   0.00901  -0.00027   0.00027  -0.00027
   0.00978   0.00041  -0.00175   0.00175  -0.00175   0.00000   0.00000   0.00000
   0.00901  -0.00175   0.90519  -0.00065   0.00065   0.02078   0.00003  -0.00003
  -0.00901   0.00175  -0.00065   0.90519  -0.00065   0.00003   0.02078   0.00003
   0.00901  -0.00175   0.00065  -0.00065   0.90519  -0.00003   0.00003   0.02078
  -0.00027   0.00000   0.02078   0.00003  -0.00003   0.00056   0.00000   0.00000
   0.00027   0.00000   0.00003   0.02078   0.00003   0.00000   0.00056   0.00000
  -0.00027   0.00000  -0.00003   0.00003   0.02078   0.00000   0.00000   0.00056
 Atom #  4 - Spin component 2
   0.96149   0.00978  -0.00901   0.00901  -0.00901   0.00027  -0.00027   0.00027
   0.00978   0.00041   0.00175  -0.00175   0.00175   0.00000   0.00000   0.00000
  -0.00901   0.00175   0.90519  -0.00065   0.00065   0.02078   0.00003  -0.00003
   0.00901  -0.00175  -0.00065   0.90519  -0.00065   0.00003   0.02078   0.00003
  -0.00901   0.00175   0.00065  -0.00065   0.90519  -0.00003   0.00003   0.02078
   0.00027   0.00000   0.02078   0.00003  -0.00003   0.00056   0.00000   0.00000
  -0.00027   0.00000   0.00003   0.02078   0.00003   0.00000   0.00056   0.00000
   0.00027   0.00000  -0.00003   0.00003   0.02078   0.00000   0.00000   0.00056
 
 "PAW+U" part of augmentation waves occupancies Rhoij:
 Atom #  1 - L=2 ONLY - Spin component 1
   0.95211  -0.00003  -0.00004  -0.00003   0.00000  -0.00920   0.00000   0.00000   0.00000   0.00000
  -0.00003   0.95211  -0.00002   0.00003   0.00003   0.00000  -0.00920   0.00000   0.00000   0.00000
  -0.00004  -0.00002   0.92520  -0.00002   0.00000   0.00000   0.00000  -0.01056   0.00000   0.00000
  -0.00003   0.00003  -0.00002   0.95211  -0.00003   0.00000   0.00000   0.00000  -0.00920   0.00000
   0.00000   0.00003   0.00000  -0.00003   0.92520   0.00000   0.00000   0.00000   0.00000  -0.01056
  -0.00920   0.00000   0.00000   0.00000   0.00000   0.00068   0.00000   0.00000   0.00000   0.00000
   0.00000  -0.00920   0.00000   0.00000   0.00000   0.00000   0.00068   0.00000   0.00000   0.00000
   0.00000   0.00000  -0.01056   0.00000   0.00000   0.00000   0.00000   0.00264   0.00000   0.00000
   0.00000   0.00000   0.00000  -0.00920   0.00000   0.00000   0.00000   0.00000   0.00068   0.00000
   0.00000   0.00000   0.00000   0.00000  -0.01056   0.00000   0.00000   0.00000   0.00000   0.00264
 Atom #  1 - L=2 ONLY - Spin component 2
   0.98949   0.00000   0.00018   0.00000   0.00000  -0.00420   0.00000   0.00000   0.00000   0.00000
   0.00000   0.98949   0.00009   0.00000  -0.00016   0.00000  -0.00420   0.00000   0.00000   0.00000
   0.00018   0.00009   0.26063   0.00009   0.00000  -0.00001  -0.00001   0.01914  -0.00001   0.00000
   0.00000   0.00000   0.00009   0.98949   0.00016   0.00000   0.00000   0.00000  -0.00420   0.00000
   0.00000  -0.00016   0.00000   0.00016   0.26063   0.00000   0.00001   0.00000  -0.00001   0.01914
  -0.00420   0.00000  -0.00001   0.00000   0.00000   0.00056   0.00000   0.00000   0.00000   0.00000
   0.00000  -0.00420  -0.00001   0.00000   0.00001   0.00000   0.00056   0.00000   0.00000   0.00000
   0.00000   0.00000   0.01914   0.00000   0.00000   0.00000   0.00000   0.00152   0.00000   0.00000
   0.00000   0.00000  -0.00001  -0.00420  -0.00001   0.00000   0.00000   0.00000   0.00056   0.00000
   0.00000   0.00000   0.00000   0.00000   0.01914   0.00000   0.00000   0.00000   0.00000   0.00152
 Atom #  2 - L=2 ONLY - Spin component 1
   0.98949   0.00000   0.00018   0.00000   0.00000  -0.00420   0.00000   0.00000   0.00000   0.00000
   0.00000   0.98949   0.00009   0.00000  -0.00016   0.00000  -0.00420   0.00000   0.00000   0.00000
   0.00018   0.00009   0.26063   0.00009   0.00000  -0.00001  -0.00001   0.01914  -0.00001   0.00000
   0.00000   0.00000   0.00009   0.98949   0.00016   0.00000   0.00000   0.00000  -0.00420   0.00000
   0.00000  -0.00016   0.00000   0.00016   0.26063   0.00000   0.00001   0.00000  -0.00001   0.01914
  -0.00420   0.00000  -0.00001   0.00000   0.00000   0.00056   0.00000   0.00000   0.00000   0.00000
   0.00000  -0.00420  -0.00001   0.00000   0.00001   0.00000   0.00056   0.00000   0.00000   0.00000
   0.00000   0.00000   0.01914   0.00000   0.00000   0.00000   0.00000   0.00152   0.00000   0.00000
   0.00000   0.00000  -0.00001  -0.00420  -0.00001   0.00000   0.00000   0.00000   0.00056   0.00000
   0.00000   0.00000   0.00000   0.00000   0.01914   0.00000   0.00000   0.00000   0.00000   0.00152
 Atom #  2 - L=2 ONLY - Spin component 2
   0.95211  -0.00003  -0.00004  -0.00003   0.00000  -0.00920   0.00000   0.00000   0.00000   0.00000
  -0.00003   0.95211  -0.00002   0.00003   0.00003   0.00000  -0.00920   0.00000   0.00000   0.00000
  -0.00004  -0.00002   0.92520  -0.00002   0.00000   0.00000   0.00000  -0.01056   0.00000   0.00000
  -0.00003   0.00003  -0.00002   0.95211  -0.00003   0.00000   0.00000   0.00000  -0.00920   0.00000
   0.00000   0.00003   0.00000  -0.00003   0.92520   0.00000   0.00000   0.00000   0.00000  -0.01056
  -0.00920   0.00000   0.00000   0.00000   0.00000   0.00068   0.00000   0.00000   0.00000   0.00000
   0.00000  -0.00920   0.00000   0.00000   0.00000   0.00000   0.00068   0.00000   0.00000   0.00000
   0.00000   0.00000  -0.01056   0.00000   0.00000   0.00000   0.00000   0.00264   0.00000   0.00000
   0.00000   0.00000   0.00000  -0.00920   0.00000   0.00000   0.00000   0.00000   0.00068   0.00000
   0.00000   0.00000   0.00000   0.00000  -0.01056   0.00000   0.00000   0.00000   0.00000   0.00264
 
---------- LDA+U DATA ---------------------------------------------------

====== For Atom    1, occupations for correlated orbitals. lpawu =   2

Atom   1. Occ. for lpawu and for spin  1 =   4.52328
Atom   1. Occ. for lpawu and for spin  2 =   2.91780
=> On atom   1,  local Mag. for lpawu is    -0.16054847E+01

== Occupation matrix for correlated orbitals:

Occupation matrix for spin  1
     0.89960    0.00000   -0.00004    0.00000    0.00000
     0.00000    0.89960   -0.00002    0.00000    0.00004
    -0.00004   -0.00002    0.91224   -0.00002    0.00000
     0.00000    0.00000   -0.00002    0.89960   -0.00004
     0.00000    0.00004    0.00000   -0.00004    0.91224


Occupation matrix for spin  2
     0.89595    0.00000    0.00026    0.00000    0.00000
     0.00000    0.89595    0.00013    0.00000   -0.00023
     0.00026    0.00013    0.11498    0.00013    0.00000
     0.00000    0.00000    0.00013    0.89595    0.00023
     0.00000   -0.00023    0.00000    0.00023    0.11498


====== For Atom    2, occupations for correlated orbitals. lpawu =   2

Atom   2. Occ. for lpawu and for spin  1 =   2.91780
Atom   2. Occ. for lpawu and for spin  2 =   4.52328
=> On atom   2,  local Mag. for lpawu is     0.16054847E+01

== Occupation matrix for correlated orbitals:

Occupation matrix for spin  1
     0.89595    0.00000    0.00026    0.00000    0.00000
     0.00000    0.89595    0.00013    0.00000   -0.00023
     0.00026    0.00013    0.11498    0.00013    0.00000
     0.00000    0.00000    0.00013    0.89595    0.00023
     0.00000   -0.00023    0.00000    0.00023    0.11498


Occupation matrix for spin  2
     0.89960    0.00000   -0.00004    0.00000    0.00000
     0.00000    0.89960   -0.00002    0.00000    0.00004
    -0.00004   -0.00002    0.91224   -0.00002    0.00000
     0.00000    0.00000   -0.00002    0.89960   -0.00004
     0.00000    0.00004    0.00000   -0.00004    0.91224


 
================================================================================

 ----iterations are completed or convergence reached----

 Mean square residual over all n,k,spin=   8.0641E-06; max=  1.7649E-03
   0.1250  0.1250  0.1250    1  5.22817E-05 kpt; spin; max resid(k); each band:
 4.28E-09 1.68E-08 2.36E-07 1.88E-07 8.34E-08 8.27E-08 4.33E-08 2.98E-08
 2.01E-07 1.87E-08 5.57E-07 1.27E-07 2.51E-07 3.54E-07 1.93E-07 4.24E-07
 2.50E-07 7.74E-08 1.94E-07 4.04E-08 1.66E-08 6.20E-08 2.30E-09 9.21E-08
 1.47E-07 2.30E-08 3.03E-08 1.22E-07 1.61E-07 1.06E-07 3.77E-07 6.50E-08
 6.24E-08 1.54E-07 1.65E-07 1.37E-07 2.75E-07 8.72E-08 7.27E-06 5.23E-05
   0.3750  0.1250  0.1250    1  1.60752E-05 kpt; spin; max resid(k); each band:
 7.31E-09 1.15E-08 2.23E-07 1.12E-07 1.41E-07 2.54E-07 2.71E-07 2.81E-07
 6.23E-08 4.07E-08 1.20E-07 3.46E-07 4.21E-07 2.25E-07 3.07E-07 3.15E-07
 7.43E-08 9.34E-08 3.13E-08 5.03E-08 9.45E-08 9.12E-08 7.39E-08 1.17E-07
 4.30E-08 2.18E-08 4.61E-07 6.96E-08 4.61E-08 4.20E-07 1.96E-07 6.54E-08
 1.27E-07 1.28E-07 3.22E-07 2.15E-07 4.30E-08 2.07E-07 1.24E-05 1.61E-05
  -0.3750  0.1250  0.1250    1  1.49920E-04 kpt; spin; max resid(k); each band:
 5.36E-09 3.06E-08 1.17E-07 5.00E-08 7.95E-08 4.74E-07 1.01E-07 5.02E-08
 2.19E-08 2.74E-08 4.61E-08 1.41E-07 3.06E-07 9.14E-08 4.06E-07 1.80E-07
 6.83E-08 4.54E-08 1.25E-07 2.39E-08 2.51E-08 2.27E-08 3.63E-08 3.16E-08
 5.53E-09 1.72E-08 2.40E-07 3.40E-08 1.80E-07 8.28E-07 5.41E-08 2.98E-08
 7.06E-08 1.82E-07 1.09E-07 2.00E-07 9.80E-08 1.90E-07 5.71E-06 1.50E-04
  -0.1250  0.1250  0.1250    1  1.76495E-03 kpt; spin; max resid(k); each band:
 4.48E-09 2.47E-08 5.90E-08 3.66E-08 2.37E-07 7.75E-08 9.60E-08 6.61E-08
 6.76E-08 2.00E-08 4.57E-07 2.21E-07 4.30E-07 4.40E-07 1.32E-07 4.92E-07
 7.27E-08 7.09E-08 1.16E-07 1.47E-07 4.25E-08 3.74E-08 7.64E-08 5.65E-09
 2.10E-08 1.21E-08 6.34E-08 3.78E-07 4.24E-08 6.10E-08 9.18E-08 2.42E-08
 1.00E-07 4.24E-08 4.30E-08 2.74E-07 6.43E-08 1.76E-07 1.06E-07 1.76E-03
   0.3750  0.3750  0.1250    1  3.58997E-06 kpt; spin; max resid(k); each band:
 1.79E-08 1.08E-08 1.22E-07 1.48E-07 5.80E-08 2.48E-07 7.79E-08 3.89E-08
 2.34E-08 6.82E-08 7.59E-08 1.71E-07 3.94E-07 2.62E-07 5.54E-07 1.08E-07
 2.32E-07 5.14E-08 5.91E-08 8.08E-08 2.38E-08 1.27E-08 2.49E-08 2.12E-07
 5.21E-09 1.75E-08 5.59E-08 1.12E-07 7.69E-08 1.26E-07 8.01E-08 1.93E-07
 3.12E-07 7.68E-08 4.06E-07 2.05E-07 7.74E-08 1.55E-07 2.03E-06 3.59E-06
  -0.3750  0.3750  0.1250    1  2.36998E-06 kpt; spin; max resid(k); each band:
 1.53E-08 2.36E-08 1.54E-07 1.13E-07 1.78E-07 2.16E-07 3.12E-07 3.72E-07
 1.91E-08 1.01E-08 2.61E-07 3.42E-07 1.64E-07 2.60E-07 4.27E-07 6.48E-07
 6.76E-08 3.81E-08 1.36E-08 4.24E-08 1.32E-08 1.11E-07 5.45E-08 2.87E-08
 6.57E-09 1.75E-08 2.00E-07 7.25E-08 1.94E-07 1.66E-07 2.00E-07 2.11E-08
 7.25E-08 9.67E-08 2.26E-07 6.95E-07 4.92E-08 6.71E-08 4.26E-07 2.37E-06
  -0.1250  0.3750  0.1250    1  4.74145E-06 kpt; spin; max resid(k); each band:
 2.12E-08 3.97E-08 1.26E-07 1.20E-07 2.71E-07 1.76E-07 1.45E-07 6.71E-08
 5.08E-08 2.86E-08 9.42E-08 1.56E-07 2.35E-07 2.05E-07 1.36E-07 1.31E-07
 1.24E-07 1.16E-07 3.13E-08 5.62E-08 1.07E-07 4.16E-08 1.56E-07 1.19E-07
 2.76E-08 2.98E-08 7.50E-08 5.51E-08 1.44E-07 2.62E-07 1.66E-07 2.77E-08
 4.94E-07 1.23E-07 7.96E-08 5.78E-07 2.68E-08 1.21E-07 1.73E-06 4.74E-06
  -0.3750 -0.3750  0.1250    1  4.81913E-04 kpt; spin; max resid(k); each band:
 6.27E-09 3.42E-08 1.45E-07 1.81E-07 1.59E-07 1.40E-07 1.71E-07 4.47E-08
 7.85E-08 1.87E-07 9.85E-08 3.43E-07 5.05E-07 2.97E-07 2.74E-07 2.82E-07
 7.96E-08 9.74E-08 7.88E-08 5.88E-08 2.84E-08 1.53E-08 4.27E-07 7.00E-08
 2.45E-08 8.55E-09 2.63E-08 2.63E-07 3.02E-07 1.00E-07 5.82E-08 4.79E-07
 7.16E-08 4.18E-08 7.60E-08 1.58E-06 1.03E-07 2.95E-06 1.43E-04 4.82E-04
  -0.1250 -0.3750  0.1250    1  1.98933E-04 kpt; spin; max resid(k); each band:
 3.02E-08 1.04E-08 1.33E-07 6.53E-08 1.06E-07 2.86E-07 4.73E-08 1.97E-08
 9.05E-08 2.52E-07 1.33E-07 9.31E-08 2.40E-07 5.74E-07 6.42E-07 9.35E-08
 4.64E-08 4.89E-08 2.96E-08 1.22E-07 1.03E-07 1.57E-08 3.14E-08 9.19E-08
 1.11E-08 3.66E-08 6.27E-08 7.71E-08 3.21E-08 2.35E-07 2.53E-07 7.82E-08
 3.96E-07 4.01E-08 8.97E-08 2.04E-07 9.16E-08 3.51E-07 1.52E-05 1.99E-04
  -0.1250 -0.1250  0.1250    1  3.81889E-04 kpt; spin; max resid(k); each band:
 4.55E-09 6.55E-09 1.60E-07 3.97E-08 7.19E-08 5.22E-08 7.12E-08 2.27E-07
 2.67E-07 1.46E-07 3.41E-07 2.25E-07 2.79E-07 3.92E-07 1.98E-07 8.54E-07
 7.33E-08 1.89E-07 2.55E-07 7.86E-08 9.71E-08 8.65E-08 1.19E-07 3.66E-08
 8.77E-08 3.74E-08 9.84E-08 2.29E-07 4.65E-08 1.46E-07 2.73E-07 1.80E-07
 4.03E-07 2.88E-07 7.84E-08 5.03E-07 1.71E-07 1.12E-07 7.75E-05 3.82E-04
   0.1250  0.1250  0.3750    1  2.49878E-04 kpt; spin; max resid(k); each band:
 4.36E-09 8.42E-09 1.73E-07 8.39E-08 8.61E-08 6.20E-08 2.00E-08 2.56E-08
 8.05E-08 5.16E-08 2.24E-07 4.05E-07 1.25E-07 1.86E-07 1.57E-07 7.01E-07
 2.78E-07 6.08E-08 1.16E-07 7.44E-08 2.44E-08 5.08E-08 1.63E-07 3.89E-08
 1.60E-08 2.77E-07 4.01E-07 1.40E-08 1.64E-07 5.97E-07 2.22E-07 1.96E-07
 2.92E-07 3.27E-08 1.50E-07 1.01E-07 4.20E-08 3.18E-07 8.27E-06 2.50E-04
   0.3750  0.1250  0.3750    1  6.42438E-05 kpt; spin; max resid(k); each band:
 5.86E-09 2.18E-08 1.52E-07 1.90E-07 1.61E-07 1.86E-07 5.79E-07 1.57E-07
 1.22E-08 2.45E-08 4.72E-08 1.28E-07 1.73E-07 3.99E-07 5.74E-07 4.50E-07
 7.67E-08 1.48E-07 6.97E-08 1.03E-07 5.43E-08 6.14E-08 7.97E-08 3.05E-08
 2.62E-08 5.50E-08 5.06E-08 4.49E-08 3.61E-08 6.81E-08 6.29E-07 5.25E-08
 2.55E-07 2.11E-07 1.29E-07 1.92E-07 1.92E-07 6.25E-07 4.64E-07 6.42E-05
  -0.3750  0.1250  0.3750    1  4.83078E-04 kpt; spin; max resid(k); each band:
 2.47E-08 1.71E-08 1.78E-07 2.04E-07 7.13E-08 3.11E-07 4.17E-08 4.40E-08
 1.14E-07 7.07E-08 1.60E-07 2.17E-07 1.60E-07 2.46E-07 3.34E-07 5.08E-07
 8.86E-08 5.37E-08 2.92E-08 2.69E-07 1.77E-08 2.85E-08 1.07E-07 4.57E-08
 4.45E-09 2.30E-08 3.10E-07 3.45E-07 4.16E-07 7.48E-08 4.24E-08 1.87E-08
 2.54E-07 4.97E-08 1.28E-07 2.96E-07 1.62E-08 1.09E-07 5.11E-07 4.83E-04
  -0.1250  0.1250  0.3750    1  5.33084E-04 kpt; spin; max resid(k); each band:
 9.03E-09 9.02E-09 3.01E-07 6.62E-08 1.10E-07 2.17E-07 1.03E-07 3.80E-08
 9.64E-08 7.04E-08 3.14E-07 4.17E-07 6.42E-07 5.84E-07 5.41E-07 7.70E-07
 5.89E-08 9.09E-08 7.30E-08 6.05E-08 1.53E-07 8.84E-08 2.26E-07 1.91E-08
 4.41E-08 7.01E-08 3.62E-08 1.81E-07 1.55E-07 4.13E-08 2.67E-07 5.90E-08
 2.15E-07 1.57E-07 1.87E-07 3.56E-07 6.91E-07 8.32E-07 2.84E-07 5.33E-04
   0.3750  0.3750  0.3750    1  1.03105E-04 kpt; spin; max resid(k); each band:
 1.37E-08 1.29E-08 4.42E-07 6.39E-08 1.58E-07 2.07E-07 2.47E-07 1.79E-08
 7.27E-08 4.25E-08 1.07E-07 2.20E-07 1.80E-07 3.17E-07 1.54E-07 7.45E-07
 5.25E-08 1.55E-07 5.86E-08 2.40E-08 7.67E-08 4.14E-08 4.41E-08 1.04E-07
 1.17E-08 1.32E-08 1.79E-07 4.83E-08 1.03E-07 1.81E-07 6.96E-08 3.16E-08
 1.38E-07 1.94E-07 6.21E-08 3.67E-07 1.72E-07 1.19E-06 1.75E-05 1.03E-04
  -0.3750  0.3750  0.3750    1  9.13628E-07 kpt; spin; max resid(k); each band:
 1.82E-08 2.76E-08 1.32E-07 3.17E-07 6.44E-08 6.99E-08 5.94E-08 1.63E-07
 3.13E-08 8.12E-08 1.55E-07 2.73E-07 1.46E-07 2.10E-07 9.14E-07 2.38E-07
 8.37E-08 9.36E-08 9.83E-08 2.56E-08 2.37E-08 6.44E-08 5.80E-08 1.13E-07
 2.06E-08 8.19E-09 5.87E-08 4.85E-07 1.49E-07 1.10E-07 7.56E-08 1.01E-07
 4.23E-07 6.35E-08 1.32E-07 2.41E-07 1.50E-07 1.15E-07 5.95E-07 3.30E-07
  -0.1250  0.3750  0.3750    1  3.80771E-04 kpt; spin; max resid(k); each band:
 1.21E-08 1.11E-08 1.57E-07 1.61E-07 2.42E-07 1.19E-07 1.34E-07 4.11E-08
 1.37E-08 4.20E-08 2.42E-07 1.31E-07 1.37E-07 1.60E-07 1.87E-07 5.79E-07
 4.08E-08 3.32E-08 1.32E-07 9.46E-08 8.76E-08 2.21E-08 1.08E-07 1.90E-07
 1.16E-08 4.10E-08 1.30E-07 2.10E-07 1.14E-07 6.46E-08 7.26E-08 1.68E-07
 1.02E-07 8.25E-08 9.36E-08 1.01E-07 9.52E-08 1.62E-07 5.05E-07 3.81E-04
  -0.3750 -0.3750  0.3750    1  9.21087E-04 kpt; spin; max resid(k); each band:
 4.61E-09 1.88E-08 9.06E-08 9.66E-08 5.25E-08 2.55E-07 2.09E-07 5.45E-08
 8.15E-08 7.64E-08 4.48E-08 2.93E-07 3.68E-07 1.36E-07 1.64E-07 9.56E-08
 1.05E-07 1.28E-07 4.18E-08 1.45E-08 1.26E-07 2.69E-08 1.42E-07 4.98E-08
 4.48E-08 1.02E-08 1.03E-07 5.33E-08 1.43E-07 1.34E-07 1.11E-07 4.60E-08
 2.92E-07 3.40E-08 1.07E-07 4.90E-08 7.42E-07 4.92E-07 1.42E-06 9.21E-04
  -0.1250 -0.3750  0.3750    1  2.08780E-04 kpt; spin; max resid(k); each band:
 9.16E-09 1.20E-08 7.86E-08 2.40E-07 3.35E-07 1.82E-07 5.58E-08 1.85E-07
 9.55E-08 1.81E-08 3.66E-08 2.20E-07 1.38E-07 2.50E-07 3.39E-07 5.71E-07
 8.38E-08 8.95E-08 1.23E-07 8.72E-08 1.62E-08 2.01E-07 2.46E-08 4.30E-08
 2.07E-08 1.60E-08 2.57E-07 4.33E-08 5.40E-07 7.14E-08 1.26E-07 5.83E-08
 2.16E-07 1.19E-07 5.43E-07 1.05E-07 3.46E-07 9.74E-07 1.51E-05 2.09E-04
  -0.1250 -0.1250  0.3750    1  1.83980E-05 kpt; spin; max resid(k); each band:
 4.95E-09 9.10E-09 4.97E-08 3.41E-08 2.23E-07 2.41E-07 7.73E-08 9.68E-08
 1.54E-07 8.81E-08 2.37E-07 3.30E-07 1.55E-07 4.57E-07 6.03E-07 5.01E-07
 9.01E-08 1.37E-07 6.74E-08 1.69E-07 1.36E-07 1.15E-07 5.52E-08 2.39E-08
 1.83E-07 1.21E-08 9.95E-08 2.24E-07 2.36E-08 4.90E-08 1.64E-07 4.41E-07
 1.99E-07 1.27E-07 3.76E-07 3.04E-07 1.50E-07 1.14E-06 1.51E-07 1.84E-05
 reduced coordinates (array xred) for    4 atoms
       0.000000000000      0.000000000000      0.000000000000
       0.000000000000      0.000000000000      0.500000000000
       0.500000000000      0.500000000000      0.250000000000
       0.500000000000      0.500000000000      0.750000000000
 rms dE/dt=  5.4738E-31; max dE/dt=  0.0000E+00; dE/dt below (all hartree)
    1       0.000000000000      0.000000000000      0.000000000000
    2       0.000000000000      0.000000000000      0.000000000000
    3       0.000000000000      0.000000000000      0.000000000000
    4       0.000000000000      0.000000000000      0.000000000000
 
 cartesian coordinates (angstrom) at end:
    1      0.00000000000000     0.00000000000000     0.00000000000000
    2      2.09554174601640     2.09554174601640     0.00000000000000
    3      2.09554174601640     2.09554174601640     2.09554174601640
    4      4.19108349203280     4.19108349203280     2.09554174601640

 cartesian forces (hartree/bohr) at end:
    1      0.00000000000000     0.00000000000000     0.00000000000000
    2      0.00000000000000     0.00000000000000     0.00000000000000
    3      0.00000000000000     0.00000000000000     0.00000000000000
    4      0.00000000000000     0.00000000000000     0.00000000000000
 frms,max,avg= 4.3129645E-32 5.8102129E-32   0.000E+00  0.000E+00  0.000E+00 h/b

 cartesian forces (eV/Angstrom) at end:
    1      0.00000000000000     0.00000000000000     0.00000000000000
    2      0.00000000000000     0.00000000000000     0.00000000000000
    3      0.00000000000000     0.00000000000000     0.00000000000000
    4      0.00000000000000     0.00000000000000     0.00000000000000
 frms,max,avg= 2.2178154E-30 2.9877313E-30   0.000E+00  0.000E+00  0.000E+00 e/A
 length scales=  7.920000000000  7.920000000000  7.920000000000 bohr
              =  4.191083492033  4.191083492033  4.191083492033 angstroms
 prteigrs : about to open file tldau_3o_EIG
 Fermi (or HOMO) energy (hartree) =   0.25984   Average Vxc (hartree)=  -0.48021
 Eigenvalues (hartree) for nkpt=  20  k points:
 kpt#   1, nband= 40, wtk=  0.03125, kpt=  0.1250  0.1250  0.1250 (reduced coord)
  -0.39552  -0.34547   0.01714   0.04362   0.04442   0.11389   0.11948   0.12713
   0.14243   0.15457   0.19268   0.19339   0.21814   0.22233   0.24260   0.24540
   0.40520   0.42300   0.42451   0.55359   0.67666   0.77797   0.83436   0.87448
   0.96206   0.96697   1.02517   1.07711   1.13821   1.15345   1.18474   1.18954
   1.21303   1.29161   1.35022   1.35538   1.39699   1.41003   1.56892   1.62550
 kpt#   2, nband= 40, wtk=  0.06250, kpt=  0.3750  0.1250  0.1250 (reduced coord)
  -0.36358  -0.34478   0.03649   0.04523   0.06229   0.07544   0.09458   0.12239
   0.13793   0.15410   0.17418   0.18136   0.19212   0.19777   0.23946   0.24680
   0.41321   0.42578   0.52362   0.59378   0.68995   0.71877   0.72221   0.81891
   0.85921   0.87487   1.01031   1.06456   1.14449   1.21329   1.24183   1.37704
   1.40946   1.41523   1.45459   1.46834   1.47170   1.49784   1.55733   1.61560
 kpt#   3, nband= 40, wtk=  0.06250, kpt= -0.3750  0.1250  0.1250 (reduced coord)
  -0.34786  -0.34426   0.01871   0.04653   0.05333   0.07678   0.09379   0.12970
   0.14474   0.15731   0.17148   0.17291   0.18608   0.19479   0.23654   0.24401
   0.42074   0.43291   0.54507   0.55810   0.68184   0.70555   0.73106   0.79047
   0.83555   0.89199   0.95500   1.11950   1.17601   1.23318   1.33459   1.34834
   1.37639   1.37912   1.42609   1.48302   1.48995   1.60272   1.65618   1.71312
 kpt#   4, nband= 40, wtk=  0.06250, kpt= -0.1250  0.1250  0.1250 (reduced coord)
  -0.38312  -0.34529   0.03125   0.04515   0.05135   0.10283   0.10665   0.12652
   0.13027   0.15583   0.17935   0.18622   0.19955   0.21737   0.24015   0.24839
   0.40866   0.41919   0.47265   0.59738   0.66528   0.73990   0.80070   0.84949
   0.87430   0.94288   1.00614   1.09153   1.12298   1.17392   1.17869   1.30331
   1.31408   1.35683   1.40019   1.41948   1.43637   1.46132   1.50595   1.61137
 kpt#   5, nband= 40, wtk=  0.03125, kpt=  0.3750  0.3750  0.1250 (reduced coord)
  -0.35597  -0.34559   0.02388   0.04177   0.04728   0.09356   0.10811   0.12641
   0.13032   0.15395   0.15984   0.19010   0.20466   0.20867   0.22595   0.23076
   0.41117   0.42680   0.55677   0.58283   0.67171   0.71479   0.74536   0.76174
   0.85023   0.90839   0.92050   1.13392   1.16734   1.22109   1.35022   1.38603
   1.38992   1.43368   1.45482   1.45848   1.50114   1.51544   1.55337   1.55768
 kpt#   6, nband= 40, wtk=  0.06250, kpt= -0.3750  0.3750  0.1250 (reduced coord)
  -0.34354  -0.34197   0.03281   0.04800   0.05189   0.06950   0.08719   0.11349
   0.14473   0.16117   0.16879   0.17764   0.18734   0.19566   0.22683   0.23373
   0.41813   0.42744   0.59985   0.60655   0.65703   0.68555   0.70892   0.73319
   0.85233   0.87258   1.00596   1.09532   1.17302   1.23794   1.29531   1.39301
   1.40119   1.41681   1.44440   1.45650   1.47461   1.55555   1.66727   1.68949
 kpt#   7, nband= 40, wtk=  0.06250, kpt= -0.1250  0.3750  0.1250 (reduced coord)
  -0.35019  -0.34222   0.02726   0.05033   0.05575   0.07596   0.09033   0.11603
   0.14150   0.15483   0.17396   0.17806   0.18810   0.19714   0.23184   0.23628
   0.41374   0.43196   0.56611   0.59032   0.68459   0.70157   0.71605   0.76200
   0.84999   0.85302   1.00972   1.10888   1.18292   1.21855   1.24348   1.38347
   1.39967   1.41086   1.46256   1.47110   1.49099   1.58382   1.64227   1.65106
 kpt#   8, nband= 40, wtk=  0.03125, kpt= -0.3750 -0.3750  0.1250 (reduced coord)
  -0.35283  -0.34885   0.02273   0.04253   0.04698   0.08864   0.10331   0.12978
   0.14447   0.14947   0.16105   0.18879   0.19316   0.19817   0.23984   0.24402
   0.42386   0.42820   0.52577   0.54941   0.69134   0.70616   0.75034   0.82032
   0.83868   0.91298   0.92168   1.09378   1.17201   1.21781   1.33155   1.37150
   1.38635   1.39565   1.43094   1.50437   1.50613   1.56870   1.61413   1.63757
 kpt#   9, nband= 40, wtk=  0.06250, kpt= -0.1250 -0.3750  0.1250 (reduced coord)
  -0.35552  -0.35305   0.02802   0.04420   0.05599   0.08788   0.09824   0.13295
   0.14082   0.14116   0.16679   0.18905   0.19622   0.20638   0.23058   0.24403
   0.41248   0.42085   0.55675   0.56766   0.69631   0.70764   0.74646   0.77428
   0.86571   0.89282   0.95625   1.04385   1.22071   1.25479   1.31383   1.37671
   1.39063   1.41209   1.41480   1.46161   1.47604   1.48056   1.57204   1.62240
 kpt#  10, nband= 40, wtk=  0.03125, kpt= -0.1250 -0.1250  0.1250 (reduced coord)
  -0.38719  -0.35652   0.02959   0.04576   0.05456   0.11321   0.11857   0.12013
   0.13222   0.14967   0.17799   0.19504   0.22093   0.22158   0.24069   0.24497
   0.39883   0.42409   0.46452   0.53998   0.70113   0.79215   0.83409   0.85945
   0.90342   0.93340   0.96323   1.11782   1.13885   1.15755   1.20415   1.21584
   1.26187   1.31269   1.37122   1.40774   1.41164   1.46958   1.53516   1.61814
 kpt#  11, nband= 40, wtk=  0.03125, kpt=  0.1250  0.1250  0.3750 (reduced coord)
  -0.39113  -0.35150   0.02701   0.04561   0.04664   0.11086   0.12039   0.12431
   0.13705   0.15133   0.18812   0.19531   0.20592   0.21855   0.24143   0.25984
   0.41307   0.41745   0.43712   0.54852   0.68605   0.78907   0.83674   0.84913
   0.92298   0.98437   1.03770   1.06373   1.07796   1.13464   1.18888   1.24212
   1.26336   1.32990   1.33960   1.38667   1.39515   1.44823   1.54079   1.62105
 kpt#  12, nband= 40, wtk=  0.06250, kpt=  0.3750  0.1250  0.3750 (reduced coord)
  -0.36655  -0.34155   0.03483   0.04879   0.06736   0.07757   0.09850   0.10591
   0.13524   0.15710   0.17571   0.18423   0.18918   0.20684   0.22995   0.24342
   0.40914   0.42611   0.52727   0.63156   0.66667   0.70829   0.74361   0.78802
   0.84160   0.89621   1.03737   1.07472   1.15728   1.17789   1.21056   1.38209
   1.41378   1.42414   1.42763   1.45941   1.48362   1.50988   1.53040   1.59469
 kpt#  13, nband= 40, wtk=  0.06250, kpt= -0.3750  0.1250  0.3750 (reduced coord)
  -0.34787  -0.34421   0.02423   0.04212   0.04576   0.08457   0.09635   0.12705
   0.14065   0.15558   0.16462   0.18343   0.19095   0.20002   0.23274   0.23542
   0.42065   0.42577   0.56492   0.57398   0.66881   0.70089   0.73646   0.76049
   0.84193   0.89215   0.95462   1.11373   1.18428   1.25786   1.32708   1.35870
   1.38828   1.40691   1.43631   1.47339   1.49303   1.51870   1.61476   1.68659
 kpt#  14, nband= 40, wtk=  0.06250, kpt= -0.1250  0.1250  0.3750 (reduced coord)
  -0.37292  -0.35731   0.02853   0.04688   0.07343   0.09723   0.10113   0.12294
   0.12874   0.14974   0.17502   0.18974   0.20486   0.22034   0.22992   0.24850
   0.40187   0.41951   0.51412   0.56208   0.71866   0.74770   0.77134   0.81264
   0.87863   0.91023   0.97944   1.02283   1.20744   1.23369   1.23591   1.26828
   1.37441   1.38776   1.40797   1.44021   1.44898   1.47783   1.49907   1.57779
 kpt#  15, nband= 40, wtk=  0.03125, kpt=  0.3750  0.3750  0.3750 (reduced coord)
  -0.35985  -0.34182   0.03341   0.04742   0.05663   0.07726   0.09475   0.12414
   0.12794   0.15757   0.16988   0.18721   0.19666   0.19693   0.22617   0.24510
   0.41503   0.42001   0.55197   0.62004   0.66063   0.70727   0.71561   0.77616
   0.87454   0.88557   0.99331   1.02848   1.21296   1.25940   1.28078   1.34570
   1.39074   1.41463   1.43645   1.45334   1.47469   1.52753   1.57853   1.59673
 kpt#  16, nband= 40, wtk=  0.06250, kpt= -0.3750  0.3750  0.3750 (reduced coord)
  -0.34366  -0.34200   0.03298   0.04468   0.06688   0.07182   0.08892   0.09469
   0.14521   0.15549   0.17626   0.18009   0.19068   0.20374   0.21475   0.22745
   0.41557   0.42698   0.62539   0.63303   0.65152   0.67316   0.70944   0.71315
   0.83551   0.86067   1.07865   1.08552   1.15417   1.15697   1.32751   1.41510
   1.42539   1.44026   1.44794   1.47195   1.50494   1.51259   1.61444   1.62555
 kpt#  17, nband= 40, wtk=  0.06250, kpt= -0.1250  0.3750  0.3750 (reduced coord)
  -0.35018  -0.34219   0.03393   0.04365   0.05175   0.07865   0.09906   0.10650
   0.14216   0.14876   0.17434   0.18492   0.19558   0.20566   0.21887   0.23086
   0.41626   0.42257   0.58743   0.62655   0.65234   0.69332   0.72404   0.73022
   0.84578   0.86898   1.01395   1.07892   1.16482   1.24151   1.36516   1.38948
   1.40652   1.40984   1.44488   1.45797   1.46579   1.47451   1.58517   1.70902
 kpt#  18, nband= 40, wtk=  0.03125, kpt= -0.3750 -0.3750  0.3750 (reduced coord)
  -0.35854  -0.34325   0.03464   0.04716   0.05300   0.07272   0.09487   0.12774
   0.13587   0.16396   0.16711   0.18022   0.18281   0.19453   0.24357   0.25022
   0.42139   0.42835   0.52024   0.57274   0.69989   0.70277   0.71712   0.83385
   0.85299   0.90027   0.95842   1.07843   1.14628   1.21495   1.30683   1.34201
   1.38710   1.41880   1.43098   1.44762   1.48048   1.58924   1.59688   1.67663
 kpt#  19, nband= 40, wtk=  0.06250, kpt= -0.1250 -0.3750  0.3750 (reduced coord)
  -0.36248  -0.34583   0.02729   0.04521   0.06424   0.08675   0.09721   0.11915
   0.13573   0.14942   0.17268   0.18960   0.19661   0.21216   0.22301   0.23752
   0.40777   0.42157   0.54993   0.61147   0.67408   0.71750   0.73839   0.76535
   0.85409   0.89640   0.96367   1.08221   1.16137   1.28284   1.30450   1.33870
   1.40249   1.41445   1.43414   1.46119   1.47618   1.48755   1.52987   1.57503
 kpt#  20, nband= 40, wtk=  0.03125, kpt= -0.1250 -0.1250  0.3750 (reduced coord)
  -0.37575  -0.36953   0.03623   0.04705   0.07215   0.09958   0.11092   0.12113
   0.12929   0.14629   0.17526   0.19403   0.20811   0.22109   0.24138   0.25916
   0.40486   0.41866   0.49381   0.51632   0.74242   0.76890   0.82835   0.83445
   0.88973   0.92514   1.01530   1.04462   1.11629   1.17063   1.17972   1.22641
   1.36455   1.38369   1.40063   1.42429   1.44046   1.47092   1.47276   1.52467
 Total charge density [el/Bohr^3]
,     Maximum=    1.6175E+00  at reduced coord.    0.0000    0.0000    0.5000
,Next maximum=    1.6175E+00  at reduced coord.    0.0000    0.0000    0.0000
,     Minimum=    1.1244E-02  at reduced coord.    0.2667    0.2333    0.1167
,Next minimum=    1.1244E-02  at reduced coord.    0.2333    0.2667    0.1167
 Spin up density      [el/Bohr^3]
,     Maximum=    1.0021E+00  at reduced coord.    0.0000    0.0000    0.0000
,Next maximum=    9.6722E-01  at reduced coord.    0.0000    0.0333    0.9833
,     Minimum=    5.4965E-03  at reduced coord.    0.2667    0.2333    0.1167
,Next minimum=    5.4965E-03  at reduced coord.    0.2333    0.2667    0.1167
 Spin down density    [el/Bohr^3]
,     Maximum=    1.0021E+00  at reduced coord.    0.0000    0.0000    0.5000
,Next maximum=    9.6722E-01  at reduced coord.    0.0000    0.9667    0.5167
,     Minimum=    5.4965E-03  at reduced coord.    0.7333    0.7333    0.3833
,Next minimum=    5.4965E-03  at reduced coord.    0.7667    0.7333    0.3833
 Magnetization (spin up - spin down) [el/Bohr^3]
,     Maximum=    3.8671E-01  at reduced coord.    0.0000    0.0000    0.0000
,Next maximum=    3.7309E-01  at reduced coord.    0.0000    0.0333    0.9833
,     Minimum=   -3.8671E-01  at reduced coord.    0.0000    0.0000    0.5000
,Next minimum=   -3.7309E-01  at reduced coord.    0.0000    0.0000    0.4833
 Relative magnetization (=zeta, between -1 and 1)
,     Maximum=    5.4135E-01  at reduced coord.    0.2000    0.8000    0.9167
,Next maximum=    5.4135E-01  at reduced coord.    0.1667    0.8000    0.9167
,     Minimum=   -5.4135E-01  at reduced coord.    0.2000    0.1667    0.4167
,Next minimum=   -5.4135E-01  at reduced coord.    0.8000    0.1667    0.4167

--------------------------------------------------------------------------------
 Components of total free energy (in Hartree) :

    Kinetic energy  =  2.34727218657083E+01
    Hartree energy  =  2.01094623478059E+01
    XC energy       = -1.89348103602833E+01
    Ewald energy    = -9.52410591238850E+01
    PspCore energy  =  3.88968900772322E+00
    Loc. psp. energy= -8.11178406715174E+01
    Spherical terms =  3.59484687797827E+01
    >>>>>>>>> Etotal= -1.11873368154666E+02

 "Double-counting" decomposition of free energy:
    Band energy     =  2.50704377559404E+00
    Ewald energy    = -9.52410591238850E+01
    PspCore energy  =  3.88968900772322E+00
    Dble-C XC-energy= -1.45830228324085E+01
    Spherical terms = -8.47436944291680E+00
    >>>> Etotal (DC)= -1.11901718615893E+02

  >Total energy in eV           = -3.04422916456771E+03
   >Total DC energy in eV        = -3.04500061985077E+03
--------------------------------------------------------------------------------

 Cartesian components of stress tensor (hartree/bohr^3)
  sigma(1 1)=  9.26062426E-04  sigma(3 2)= -9.21812554E-07
  sigma(2 2)=  9.26062426E-04  sigma(3 1)= -9.21812554E-07
  sigma(3 3)=  9.26062426E-04  sigma(2 1)=  9.21812554E-07

-Cartesian components of stress tensor (GPa)         [Pressure= -2.7246E+01 GPa]
- sigma(1 1)=  2.72456926E+01  sigma(3 2)= -2.71206571E-02
- sigma(2 2)=  2.72456926E+01  sigma(3 1)= -2.71206571E-02
- sigma(3 3)=  2.72456926E+01  sigma(2 1)=  2.71206571E-02

== END DATASET(S) ==============================================================
================================================================================
  
 -outvars: echo values of variables after computation  --------
     acell    7.9200000000E+00  7.9200000000E+00  7.9200000000E+00 Bohr
       amu    5.86900000E+01  1.59994000E+01
      ecut    1.50000000E+01 Hartree
    etotal   -1.1190171862E+02
     fcart    5.8102128962E-32  5.8102128962E-32 -5.8102128962E-32
              2.4900912412E-32  2.4900912412E-32 -2.4900912412E-32
             -4.1501520687E-32 -4.1501520687E-32  4.1501520687E-32
             -4.1501520687E-32 -4.1501520687E-32  4.1501520687E-32
       ixc         7
       kpt    1.25000000E-01  1.25000000E-01  1.25000000E-01
              3.75000000E-01  1.25000000E-01  1.25000000E-01
             -3.75000000E-01  1.25000000E-01  1.25000000E-01
             -1.25000000E-01  1.25000000E-01  1.25000000E-01
              3.75000000E-01  3.75000000E-01  1.25000000E-01
             -3.75000000E-01  3.75000000E-01  1.25000000E-01
             -1.25000000E-01  3.75000000E-01  1.25000000E-01
             -3.75000000E-01 -3.75000000E-01  1.25000000E-01
             -1.25000000E-01 -3.75000000E-01  1.25000000E-01
             -1.25000000E-01 -1.25000000E-01  1.25000000E-01
              1.25000000E-01  1.25000000E-01  3.75000000E-01
              3.75000000E-01  1.25000000E-01  3.75000000E-01
             -3.75000000E-01  1.25000000E-01  3.75000000E-01
             -1.25000000E-01  1.25000000E-01  3.75000000E-01
              3.75000000E-01  3.75000000E-01  3.75000000E-01
             -3.75000000E-01  3.75000000E-01  3.75000000E-01
             -1.25000000E-01  3.75000000E-01  3.75000000E-01
             -3.75000000E-01 -3.75000000E-01  3.75000000E-01
             -1.25000000E-01 -3.75000000E-01  3.75000000E-01
             -1.25000000E-01 -1.25000000E-01  3.75000000E-01
   kptrlen    2.24011428E+01
    kptopt         1
  kptrlatt    4  0  0   0  4  0   0  0  4
P    mkmem        20
     natom         4
     nband        40
     ngfft        20      20      40
   ngfftdg        30      30      60
      nkpt        20
    nspden         2
     nstep        50
      nsym        24
    ntypat         2
       occ    2.000000  2.000000  2.000000  2.000000  2.000000  2.000000
              2.000000  2.000000  2.000000  2.000000  2.000000  2.000000
              2.000000  2.000000  2.000000  2.000000  0.000000  0.000000
              0.000000  0.000000  0.000000  0.000000  0.000000  0.000000
              0.000000  0.000000  0.000000  0.000000  0.000000  0.000000
              0.000000  0.000000  0.000000  0.000000  0.000000  0.000000
              0.000000  0.000000  0.000000  0.000000
 pawecutdg    3.00000000E+01 Hartree
 usedmatpu         5
   usepawu         1
     jpawu    2.93994603E-02  0.00000000E+00
     lpawu         2      -1
     upawu    2.93994603E-01  0.00000000E+00
  dmatpawu    9.00360000E-01  0.00000000E+00 -3.00000000E-05
              0.00000000E+00  0.00000000E+00  0.00000000E+00
              9.00360000E-01 -1.00000000E-05  0.00000000E+00
              2.00000000E-05 -3.00000000E-05 -1.00000000E-05
              9.13090000E-01 -1.00000000E-05  0.00000000E+00
              0.00000000E+00  0.00000000E+00 -1.00000000E-05
              9.00360000E-01 -2.00000000E-05  0.00000000E+00
              2.00000000E-05  0.00000000E+00 -2.00000000E-05
              9.13090000E-01  8.96770000E-01 -1.00000000E-05
              1.10000000E-04 -1.00000000E-05  0.00000000E+00
             -1.00000000E-05  8.96770000E-01  6.00000000E-05
              1.00000000E-05 -1.00000000E-04  1.10000000E-04
              6.00000000E-05  1.15800000E-01  6.00000000E-05
              0.00000000E+00 -1.00000000E-05  1.00000000E-05
              6.00000000E-05  8.96770000E-01  1.00000000E-04
              0.00000000E+00 -1.00000000E-04  0.00000000E+00
              1.00000000E-04  1.15800000E-01
 prtdensph         1
    ratsph    2.31080032E+00 Bohr
     rprim    0.0000000000E+00  5.0000000000E-01  5.0000000000E-01
              5.0000000000E-01  0.0000000000E+00  5.0000000000E-01
              1.0000000000E+00  1.0000000000E+00  0.0000000000E+00
    shiftk    5.00000000E-01  5.00000000E-01  5.00000000E-01
   spgroup       166
    spinat    0.0000000000E+00  0.0000000000E+00  1.0000000000E+00
              0.0000000000E+00  0.0000000000E+00 -1.0000000000E+00
              0.0000000000E+00  0.0000000000E+00  0.0000000000E+00
              0.0000000000E+00  0.0000000000E+00  0.0000000000E+00
    strten    9.2606242628E-04  9.2606242628E-04  9.2606242628E-04
             -9.2181255370E-07 -9.2181255369E-07  9.2181255370E-07
    symafm    1 -1  1  -1  1 -1   1 -1  1      -1  1 -1   1 -1  1  -1  1 -1
              1 -1  1  -1  1 -1
    symrel    1  0  0   0  1  0   0  0  1       1  0  0   0  1  0   0  0  1
             -1  0  0   0 -1  0   0  0 -1      -1  0  0   0 -1  0   0  0 -1
              0  1  0   1  0  0   0  0  1       0  1  0   1  0  0   0  0  1
              0 -1  0  -1  0  0   0  0 -1       0 -1  0  -1  0  0   0  0 -1
              0 -1  0   1 -1  0   0 -2  1       0 -1  0   1 -1  0   0 -2  1
              0  1  0  -1  1  0   0  2 -1       0  1  0  -1  1  0   0  2 -1
              1 -1  0   0 -1  0   0 -2  1       1 -1  0   0 -1  0   0 -2  1
             -1  1  0   0  1  0   0  2 -1      -1  1  0   0  1  0   0  2 -1
             -1  1  0  -1  0  0  -2  0  1      -1  1  0  -1  0  0  -2  0  1
              1 -1  0   1  0  0   2  0 -1       1 -1  0   1  0  0   2  0 -1
             -1  0  0  -1  1  0  -2  0  1      -1  0  0  -1  1  0  -2  0  1
              1  0  0   1 -1  0   2  0 -1       1  0  0   1 -1  0   2  0 -1
     tnons    0.0000000  0.0000000  0.0000000     0.0000000  0.0000000  0.5000000
              0.0000000  0.0000000  0.0000000     0.0000000  0.0000000  0.5000000
              0.0000000  0.0000000  0.0000000     0.0000000  0.0000000  0.5000000
              0.0000000  0.0000000  0.0000000     0.0000000  0.0000000  0.5000000
              0.0000000  0.0000000  0.0000000     0.0000000  0.0000000  0.5000000
              0.0000000  0.0000000  0.0000000     0.0000000  0.0000000  0.5000000
              0.0000000  0.0000000  0.0000000     0.0000000  0.0000000  0.5000000
              0.0000000  0.0000000  0.0000000     0.0000000  0.0000000  0.5000000
              0.0000000  0.0000000  0.0000000     0.0000000  0.0000000  0.5000000
              0.0000000  0.0000000  0.0000000     0.0000000  0.0000000  0.5000000
              0.0000000  0.0000000  0.0000000     0.0000000  0.0000000  0.5000000
              0.0000000  0.0000000  0.0000000     0.0000000  0.0000000  0.5000000
    toldfe    1.00000000E-05 Hartree
     typat    1  1  2  2
    useylm         1
       wtk      0.03125    0.06250    0.06250    0.06250    0.03125    0.06250
                0.06250    0.03125    0.06250    0.03125    0.03125    0.06250
                0.06250    0.06250    0.03125    0.06250    0.06250    0.03125
                0.06250    0.03125
    xangst    0.0000000000E+00  0.0000000000E+00  0.0000000000E+00
              2.0955417460E+00  2.0955417460E+00  0.0000000000E+00
              2.0955417460E+00  2.0955417460E+00  2.0955417460E+00
              4.1910834920E+00  4.1910834920E+00  2.0955417460E+00
     xcart    0.0000000000E+00  0.0000000000E+00  0.0000000000E+00
              3.9600000000E+00  3.9600000000E+00  0.0000000000E+00
              3.9600000000E+00  3.9600000000E+00  3.9600000000E+00
              7.9200000000E+00  7.9200000000E+00  3.9600000000E+00
      xred    0.0000000000E+00  0.0000000000E+00  0.0000000000E+00
              0.0000000000E+00  0.0000000000E+00  5.0000000000E-01
              5.0000000000E-01  5.0000000000E-01  2.5000000000E-01
              5.0000000000E-01  5.0000000000E-01  7.5000000000E-01
     znucl     28.00000    8.00000

================================================================================

- Total cpu        time (s,m,h):         64.0        1.07      0.018
- Total wall clock time (s,m,h):         64.0        1.07      0.018

- For major independent code sections, cpu and wall times (sec),
- as well as % of the total time and number of calls 

- routine                 cpu     %       wall     %      number of calls 
-                                                          (-1=no count)
- fourwf(pot)           26.058  40.7     26.090  40.8          61120
- nonlop(apply)         16.121  25.2     16.112  25.2          61120
- projbd                 5.730   9.0      5.755   9.0          47520
- vtowfk(ssdiag)         5.378   8.4      5.390   8.4             -1
- fourwf(den)            1.202   1.9      1.174   1.8           4800
- pspini                 1.185   1.9      1.185   1.9              1
- nonlop(forces)         1.066   1.7      1.089   1.7           4800
- getghc-other           1.000   1.6      1.001   1.6             -1
- xc:pot/=fourdp         0.691   1.1      0.692   1.1            152
- pawinit                0.496   0.8      0.496   0.8              2
- pawdenpot              0.388   0.6      0.388   0.6             15
- timing timab           0.380   0.6      0.380   0.6             11
- 54   others            2.072   3.2      2.065   3.2

- subtotal              61.767  96.5     61.817  96.6

================================================================================

 Calculation completed.
.Delivered    1 WARNINGs and   0 COMMENTs to log file.
+Overall time at end (sec) : cpu=         64.0  wall=         64.0
