
.Version 5.5.3  of ABINIT 
.(sequential version, prepared for a x86_64_linux_intel9.1 computer) 

.Copyright (C) 1998-2007 ABINIT group . 
 ABINIT comes with ABSOLUTELY NO WARRANTY.
 It is free software, and you are welcome to redistribute it
 under certain conditions (GNU General Public License,
 see ~abinit/COPYING or http://www.gnu.org/copyleft/gpl.txt).

 ABINIT is a project of the Universite Catholique de Louvain,
 Corning Inc. and other collaborators, see ~abinit/doc/developers/contributors.txt .
 Please read ~abinit/doc/users/acknowledgments.html for suggested
 acknowledgments of the ABINIT effort.
 For more information, see http://www.abinit.org .

.Starting date : Thu 22 May 2008.
  
- input  file    -> tldau_4.in
- output file    -> tldau_4.out
- root for input  files -> tldau_4i
- root for output files -> tldau_4o


 Magnetic group, Shubnikov type IV
 Fedorov space group R-3 m (#166)
 Magnetic Bravais lattice hR_I (rhombohedral, centered magnetic, #31)
================================================================================
 Values of the parameters that define the memory need of the present run
   intxc =         0  ionmov =         0    iscf =        17 xclevel =         1
  lmnmax =        18   lnmax =         6   mband =        40  mffmem =         1
P  mgfft =        40   mkmem =        20 mpssoang=         3     mpw =       698
  mqgrid =      3001   natom =         4    nfft =     16000    nkpt =        20
  nloalg =         4  nspden =         2 nspinor =         1  nsppol =         1
    nsym =        24  n1xccc =         1  ntypat =         2  occopt =         1
 PAW method is used; the additional fine FFT grid is defined by:
   mgfftf=        60    nfftf =     54000
================================================================================
P This job should need less than                      47.839 Mbytes of memory.
  Rough estimation (10% accuracy) of disk space for files :
  WF disk file :      8.523 Mbytes ; DEN or POT disk file :      0.414 Mbytes.
================================================================================

 -outvars: echo values of preprocessed input variables --------
     acell    7.9200000000E+00  7.9200000000E+00  7.9200000000E+00 Bohr
       amu    5.86900000E+01  1.59994000E+01
      ecut    1.50000000E+01 Hartree
       ixc         7
       kpt    1.25000000E-01  1.25000000E-01  1.25000000E-01
              3.75000000E-01  1.25000000E-01  1.25000000E-01
             -3.75000000E-01  1.25000000E-01  1.25000000E-01
             -1.25000000E-01  1.25000000E-01  1.25000000E-01
              3.75000000E-01  3.75000000E-01  1.25000000E-01
             -3.75000000E-01  3.75000000E-01  1.25000000E-01
             -1.25000000E-01  3.75000000E-01  1.25000000E-01
             -3.75000000E-01 -3.75000000E-01  1.25000000E-01
             -1.25000000E-01 -3.75000000E-01  1.25000000E-01
             -1.25000000E-01 -1.25000000E-01  1.25000000E-01
              1.25000000E-01  1.25000000E-01  3.75000000E-01
              3.75000000E-01  1.25000000E-01  3.75000000E-01
             -3.75000000E-01  1.25000000E-01  3.75000000E-01
             -1.25000000E-01  1.25000000E-01  3.75000000E-01
              3.75000000E-01  3.75000000E-01  3.75000000E-01
             -3.75000000E-01  3.75000000E-01  3.75000000E-01
             -1.25000000E-01  3.75000000E-01  3.75000000E-01
             -3.75000000E-01 -3.75000000E-01  3.75000000E-01
             -1.25000000E-01 -3.75000000E-01  3.75000000E-01
             -1.25000000E-01 -1.25000000E-01  3.75000000E-01
   kptrlen    2.24011428E+01
    kptopt         1
  kptrlatt    4  0  0   0  4  0   0  0  4
P    mkmem        20
     natom         4
     nband        40
     ngfft        20      20      40
   ngfftdg        30      30      60
      nkpt        20
    nspden         2
     nstep        50
      nsym        24
    ntypat         2
       occ    2.000000  2.000000  2.000000  2.000000  2.000000  2.000000
              2.000000  2.000000  2.000000  2.000000  2.000000  2.000000
              2.000000  2.000000  2.000000  2.000000  0.000000  0.000000
              0.000000  0.000000  0.000000  0.000000  0.000000  0.000000
              0.000000  0.000000  0.000000  0.000000  0.000000  0.000000
              0.000000  0.000000  0.000000  0.000000  0.000000  0.000000
              0.000000  0.000000  0.000000  0.000000
 pawecutdg    3.00000000E+01 Hartree
 usedmatpu         5
   usepawu         2
     jpawu    2.93994603E-02  0.00000000E+00
     lpawu         2      -1
     upawu    2.93994603E-01  0.00000000E+00
  dmatpawu    9.00360000E-01  0.00000000E+00 -3.00000000E-05
              0.00000000E+00  0.00000000E+00  0.00000000E+00
              9.00360000E-01 -1.00000000E-05  0.00000000E+00
              2.00000000E-05 -3.00000000E-05 -1.00000000E-05
              9.13090000E-01 -1.00000000E-05  0.00000000E+00
              0.00000000E+00  0.00000000E+00 -1.00000000E-05
              9.00360000E-01 -2.00000000E-05  0.00000000E+00
              2.00000000E-05  0.00000000E+00 -2.00000000E-05
              9.13090000E-01  8.96770000E-01 -1.00000000E-05
              1.10000000E-04 -1.00000000E-05  0.00000000E+00
             -1.00000000E-05  8.96770000E-01  6.00000000E-05
              1.00000000E-05 -1.00000000E-04  1.10000000E-04
              6.00000000E-05  1.15800000E-01  6.00000000E-05
              0.00000000E+00 -1.00000000E-05  1.00000000E-05
              6.00000000E-05  8.96770000E-01  1.00000000E-04
              0.00000000E+00 -1.00000000E-04  0.00000000E+00
              1.00000000E-04  1.15800000E-01
 prtdensph         1
    ratsph    2.31080032E+00 Bohr
     rprim    0.0000000000E+00  5.0000000000E-01  5.0000000000E-01
              5.0000000000E-01  0.0000000000E+00  5.0000000000E-01
              1.0000000000E+00  1.0000000000E+00  0.0000000000E+00
    shiftk    5.00000000E-01  5.00000000E-01  5.00000000E-01
   spgroup       166
    spinat    0.0000000000E+00  0.0000000000E+00  1.0000000000E+00
              0.0000000000E+00  0.0000000000E+00 -1.0000000000E+00
              0.0000000000E+00  0.0000000000E+00  0.0000000000E+00
              0.0000000000E+00  0.0000000000E+00  0.0000000000E+00
    symafm    1 -1  1  -1  1 -1   1 -1  1      -1  1 -1   1 -1  1  -1  1 -1
              1 -1  1  -1  1 -1
    symrel    1  0  0   0  1  0   0  0  1       1  0  0   0  1  0   0  0  1
             -1  0  0   0 -1  0   0  0 -1      -1  0  0   0 -1  0   0  0 -1
              0  1  0   1  0  0   0  0  1       0  1  0   1  0  0   0  0  1
              0 -1  0  -1  0  0   0  0 -1       0 -1  0  -1  0  0   0  0 -1
              0 -1  0   1 -1  0   0 -2  1       0 -1  0   1 -1  0   0 -2  1
              0  1  0  -1  1  0   0  2 -1       0  1  0  -1  1  0   0  2 -1
              1 -1  0   0 -1  0   0 -2  1       1 -1  0   0 -1  0   0 -2  1
             -1  1  0   0  1  0   0  2 -1      -1  1  0   0  1  0   0  2 -1
             -1  1  0  -1  0  0  -2  0  1      -1  1  0  -1  0  0  -2  0  1
              1 -1  0   1  0  0   2  0 -1       1 -1  0   1  0  0   2  0 -1
             -1  0  0  -1  1  0  -2  0  1      -1  0  0  -1  1  0  -2  0  1
              1  0  0   1 -1  0   2  0 -1       1  0  0   1 -1  0   2  0 -1
     tnons    0.0000000  0.0000000  0.0000000     0.0000000  0.0000000  0.5000000
              0.0000000  0.0000000  0.0000000     0.0000000  0.0000000  0.5000000
              0.0000000  0.0000000  0.0000000     0.0000000  0.0000000  0.5000000
              0.0000000  0.0000000  0.0000000     0.0000000  0.0000000  0.5000000
              0.0000000  0.0000000  0.0000000     0.0000000  0.0000000  0.5000000
              0.0000000  0.0000000  0.0000000     0.0000000  0.0000000  0.5000000
              0.0000000  0.0000000  0.0000000     0.0000000  0.0000000  0.5000000
              0.0000000  0.0000000  0.0000000     0.0000000  0.0000000  0.5000000
              0.0000000  0.0000000  0.0000000     0.0000000  0.0000000  0.5000000
              0.0000000  0.0000000  0.0000000     0.0000000  0.0000000  0.5000000
              0.0000000  0.0000000  0.0000000     0.0000000  0.0000000  0.5000000
              0.0000000  0.0000000  0.0000000     0.0000000  0.0000000  0.5000000
    toldfe    1.00000000E-05 Hartree
     typat    1  1  2  2
    useylm         1
       wtk      0.03125    0.06250    0.06250    0.06250    0.03125    0.06250
                0.06250    0.03125    0.06250    0.03125    0.03125    0.06250
                0.06250    0.06250    0.03125    0.06250    0.06250    0.03125
                0.06250    0.03125
    xangst    0.0000000000E+00  0.0000000000E+00  0.0000000000E+00
              2.0955417460E+00  2.0955417460E+00  0.0000000000E+00
              2.0955417460E+00  2.0955417460E+00  2.0955417460E+00
              4.1910834920E+00  4.1910834920E+00  2.0955417460E+00
     xcart    0.0000000000E+00  0.0000000000E+00  0.0000000000E+00
              3.9600000000E+00  3.9600000000E+00  0.0000000000E+00
              3.9600000000E+00  3.9600000000E+00  3.9600000000E+00
              7.9200000000E+00  7.9200000000E+00  3.9600000000E+00
      xred    0.0000000000E+00  0.0000000000E+00  0.0000000000E+00
              0.0000000000E+00  0.0000000000E+00  5.0000000000E-01
              5.0000000000E-01  5.0000000000E-01  2.5000000000E-01
              5.0000000000E-01  5.0000000000E-01  7.5000000000E-01
     znucl     28.00000    8.00000

================================================================================

 chkinp: Checking input parameters for consistency.

================================================================================
== DATASET  1 ==================================================================

 Real(R)+Recip(G) space primitive vectors, cartesian coordinates (Bohr,Bohr^-1):
 R(1)=  0.0000000  3.9600000  3.9600000  G(1)= -0.1262626  0.1262626  0.1262626
 R(2)=  3.9600000  0.0000000  3.9600000  G(2)=  0.1262626 -0.1262626  0.1262626
 R(3)=  7.9200000  7.9200000  0.0000000  G(3)=  0.0631313  0.0631313 -0.0631313
 Unit cell volume ucvol=  2.4839654E+02 bohr^3
 Angles (23,13,12)=  6.00000000E+01  6.00000000E+01  6.00000000E+01 degrees

 Coarse grid specifications (used for wave-functions):

 getcut: wavevector=  0.0000  0.0000  0.0000  ngfft=  20  20  40
         ecut(hartree)=     15.000   => boxcut(ratio)=   2.04837

 Fine grid specifications (used for densities):

 getcut: wavevector=  0.0000  0.0000  0.0000  ngfft=  30  30  60
         ecut(hartree)=     30.000   => boxcut(ratio)=   2.17444

--- Pseudopotential description ------------------------------------------------
- pspini: atom type   1  psp file is ../PAW/ni_atompaw.paw
- pspatm: opening atomic psp file    ../PAW/ni_atompaw.paw
 Paw atomic data for element Ni - Generated by AtomPAW (N. Holzwarth) + AtomPAW2Abinit v3.1.1
  28.00000  10.00000  20070601                znucl, zion, pspdat
    7    7    2    0      1080   0.00000      pspcod,pspxc,lmax,lloc,mmax,r2well
 Pseudopotential format is: paw3
 basis_size (lnmax)=  6 (lmn_size= 18), orbitals=   0   0   1   1   2   2
 Spheres core radius: rc_sph= 2.31080032
 4 radial meshes are used:
  - mesh 1: r(i)=AA*[exp(BB*(i-1))-1], size=1080 , AA= 0.29784E-03 BB= 0.83395E-02
  - mesh 2: r(i)=AA*[exp(BB*(i-1))-1], size=1075 , AA= 0.29784E-03 BB= 0.83395E-02
  - mesh 3: r(i)=AA*[exp(BB*(i-1))-1], size=1165 , AA= 0.29784E-03 BB= 0.83395E-02
  - mesh 4: r(i)=AA*[exp(BB*(i-1))-1], size=1250 , AA= 0.29784E-03 BB= 0.83395E-02
 Shapefunction is BESSEL type: shapef(r,l)=aa(1,l)*jl(q(1,l)*r)+aa(2,l)*jl(q(2,l)*r)
 Radius for shape functions =  2.00531667
 Radial grid used for partial waves is grid 1
 Radial grid used for projectors is grid 2
 Radial grid used for (t)core density is grid 3
 Radial grid used for Vloc is grid 4
 pspatm: atomic psp has been read  and splines computed

- pspini: atom type   2  psp file is ../PAW/O_LDA_abinit
- pspatm: opening atomic psp file    ../PAW/O_LDA_abinit
 Paw atomic data for element O - Generated by AtomPAW (N. Holzwarth) + AtomPAW2Abinit v3.1.1
   8.00000   6.00000  20070409                znucl, zion, pspdat
    7    7    1    0      1311   0.00000      pspcod,pspxc,lmax,lloc,mmax,r2well
 Pseudopotential format is: paw3
 basis_size (lnmax)=  4 (lmn_size=  8), orbitals=   0   0   1   1
 Spheres core radius: rc_sph= 1.41465230
 4 radial meshes are used:
  - mesh 1: r(i)=AA*[exp(BB*(i-1))-1], size=1311 , AA= 0.72565E-03 BB= 0.58052E-02
  - mesh 2: r(i)=AA*[exp(BB*(i-1))-1], size=1306 , AA= 0.72565E-03 BB= 0.58052E-02
  - mesh 3: r(i)=AA*[exp(BB*(i-1))-1], size=1329 , AA= 0.72565E-03 BB= 0.58052E-02
  - mesh 4: r(i)=AA*[exp(BB*(i-1))-1], size=1642 , AA= 0.72565E-03 BB= 0.58052E-02
 Shapefunction is SIN type: shapef(r)=[sin(pi*r/rshp)/(pi*r/rshp)]**2
 Radius for shape functions = sphere core radius
 Radial grid used for partial waves is grid 1
 Radial grid used for projectors is grid 2
 Radial grid used for (t)core density is grid 3
 Radial grid used for Vloc is grid 4
 pspatm: atomic psp has been read  and splines computed

   9.66185307E+02                                ecore*ucvol(ha*bohr**3)
--------------------------------------------------------------------------------

P newkpt: treating     40 bands with npw=     682 for ikpt=   1
P newkpt: treating     40 bands with npw=     689 for ikpt=   2
P newkpt: treating     40 bands with npw=     694 for ikpt=   3
P newkpt: treating     40 bands with npw=     687 for ikpt=   4
P newkpt: treating     40 bands with npw=     683 for ikpt=   5
P newkpt: treating     40 bands with npw=     698 for ikpt=   6
P newkpt: treating     40 bands with npw=     694 for ikpt=   7
P newkpt: treating     40 bands with npw=     689 for ikpt=   8
P newkpt: treating     40 bands with npw=     681 for ikpt=   9
P newkpt: treating     40 bands with npw=     686 for ikpt=  10
P newkpt: treating     40 bands with npw=     680 for ikpt=  11
P newkpt: treating     40 bands with npw=     688 for ikpt=  12
P newkpt: treating     40 bands with npw=     693 for ikpt=  13
P newkpt: treating     40 bands with npw=     681 for ikpt=  14
P newkpt: treating     40 bands with npw=     690 for ikpt=  15
P newkpt: treating     40 bands with npw=     695 for ikpt=  16
P newkpt: treating     40 bands with npw=     692 for ikpt=  17
P newkpt: treating     40 bands with npw=     696 for ikpt=  18
P newkpt: treating     40 bands with npw=     685 for ikpt=  19
P newkpt: treating     40 bands with npw=     679 for ikpt=  20
 
 setup2: Arith. and geom. avg. npw (full set) are     688.719     688.696


******************************************
 LDA+U Method used: AMF
******************************************

================================================================================

     iter   Etot(hartree)      deltaE(h)  residm     nres2    diffor    maxfor
 ETOT  1  -118.82271127423    -1.188E+02 6.391E+01 2.046E+03 4.980E-32 4.980E-32
 ETOT  2  -121.37677274624    -2.554E+00 7.222E+00 1.086E+03 4.980E-32 0.000E+00
 ETOT  3  -111.81072427799     9.566E+00 1.192E+01 1.401E+02 0.000E+00 0.000E+00
 ETOT  4  -111.54593743071     2.648E-01 4.488E-01 9.781E+00 0.000E+00 0.000E+00
 ETOT  5  -112.21482003624    -6.689E-01 3.631E-01 4.445E+01 0.000E+00 0.000E+00
 ETOT  6  -112.29892289875    -8.410E-02 1.440E-01 1.065E+00 0.000E+00 0.000E+00
 ETOT  7  -112.33985015166    -4.093E-02 1.132E-01 7.350E-01 0.000E+00 0.000E+00
 ETOT  8  -112.33899332521     8.568E-04 2.177E-02 1.010E-01 0.000E+00 0.000E+00
 ETOT  9  -112.34081258553    -1.819E-03 1.067E-02 4.628E-02 0.000E+00 0.000E+00
 ETOT 10  -112.34110482252    -2.922E-04 1.760E-02 3.539E-02 0.000E+00 0.000E+00
 ETOT 11  -112.34141678608    -3.120E-04 4.219E-03 6.681E-03 0.000E+00 0.000E+00
 ETOT 12  -112.34149194328    -7.516E-05 6.566E-03 4.265E-04 0.000E+00 0.000E+00
 ETOT 13  -112.34150623512    -1.429E-05 2.856E-03 3.233E-04 0.000E+00 0.000E+00
 ETOT 14  -112.34150481312     1.422E-06 9.743E-03 9.296E-05 0.000E+00 0.000E+00
 ETOT 15  -112.34150523089    -4.178E-07 3.738E-03 8.720E-05 4.980E-32 4.980E-32

 At SCF step   15, etot is converged :
  for the second time, diff in etot=  4.178E-07 < toldfe=  1.000E-05

 Cartesian components of stress tensor (hartree/bohr^3)
  sigma(1 1)=  7.37382654E-04  sigma(3 2)= -1.89621967E-07
  sigma(2 2)=  7.37382654E-04  sigma(3 1)= -1.89621967E-07
  sigma(3 3)=  7.37382654E-04  sigma(2 1)=  1.89621967E-07
 

 Integrated total density in atomic spheres:
 -------------------------------------------
 Atom  Sphere radius  Integrated_up_density  Integrated_dn_density  Total(up+dn)   Diff(up-dn)
    1        2.31080             5.28943941             3.60071406    8.89015347    1.68872535
    2        2.31080             3.60071406             5.28943941    8.89015347   -1.68872535
    3        2.31080             3.49862376             3.49862376    6.99724752    0.00000000
    4        2.31080             3.49862376             3.49862376    6.99724752    0.00000000
 Note: Diff(up-dn) can be considered as a rough approximation of a local magnetic moment.



 PAW TEST:
 ==== Compensation charge inside spheres ============
 The following values must be close...
 Compensation charge over spherical meshes =     13.515269557314756
 Compensation charge over fine fft grid    =     13.516772710738195

 ==== Results concerning PAW augmentation regions ====
 
 Total pseudopotential strength Dij (hartree):
 Atom #  1 - Spin component 1
   0.39468  -0.03718   0.00000   0.00000   0.00000   0.00000   0.00000   0.00000   0.00000   0.00000   0.00000   0.00000 ...
  -0.03718   9.66206   0.00000   0.00000   0.00000   0.00000   0.00000   0.00000   0.00000   0.00000   0.00000   0.00000 ...
   0.00000   0.00000   0.04273   0.00000   0.00000   0.02130  -0.00001   0.00001   0.00000   0.00000   0.00000   0.00000 ...
   0.00000   0.00000   0.00000   0.04273   0.00000  -0.00001   0.02130  -0.00001   0.00000   0.00000   0.00000   0.00000 ...
   0.00000   0.00000   0.00000   0.00000   0.04273   0.00001  -0.00001   0.02130   0.00000   0.00000   0.00000   0.00000 ...
   0.00000   0.00000   0.02130  -0.00001   0.00001  21.84659  -0.00015   0.00015   0.00000   0.00000   0.00000   0.00000 ...
   0.00000   0.00000  -0.00001   0.02130  -0.00001  -0.00015  21.84659  -0.00015   0.00000   0.00000   0.00000   0.00000 ...
   0.00000   0.00000   0.00001  -0.00001   0.02130   0.00015  -0.00015  21.84659   0.00000   0.00000   0.00000   0.00000 ...
   0.00000   0.00000   0.00000   0.00000   0.00000   0.00000   0.00000   0.00000  -0.05767  -0.00002  -0.00002  -0.00002 ...
   0.00000   0.00000   0.00000   0.00000   0.00000   0.00000   0.00000   0.00000  -0.00002  -0.05767  -0.00001   0.00002 ...
   0.00000   0.00000   0.00000   0.00000   0.00000   0.00000   0.00000   0.00000  -0.00002  -0.00001  -0.10738  -0.00001 ...
   0.00000   0.00000   0.00000   0.00000   0.00000   0.00000   0.00000   0.00000  -0.00002   0.00002  -0.00001  -0.05767 ...
   ...  only 12  components have been written...
 Atom #  1 - Spin component 2
   0.38470  -0.03820   0.00000   0.00000   0.00000   0.00000   0.00000   0.00000   0.00000   0.00000   0.00000   0.00000 ...
  -0.03820   9.69765   0.00000   0.00000   0.00000   0.00000   0.00000   0.00000   0.00000   0.00000   0.00000   0.00000 ...
   0.00000   0.00000   0.04210   0.00000   0.00000   0.03902   0.00000   0.00000   0.00000   0.00000   0.00000   0.00000 ...
   0.00000   0.00000   0.00000   0.04210   0.00000   0.00000   0.03902   0.00000   0.00000   0.00000   0.00000   0.00000 ...
   0.00000   0.00000   0.00000   0.00000   0.04210   0.00000   0.00000   0.03902   0.00000   0.00000   0.00000   0.00000 ...
   0.00000   0.00000   0.03902   0.00000   0.00000  21.81573  -0.00009   0.00009   0.00000   0.00000   0.00000   0.00000 ...
   0.00000   0.00000   0.00000   0.03902   0.00000  -0.00009  21.81573  -0.00009   0.00000   0.00000   0.00000   0.00000 ...
   0.00000   0.00000   0.00000   0.00000   0.03902   0.00009  -0.00009  21.81573   0.00000   0.00000   0.00000   0.00000 ...
   0.00000   0.00000   0.00000   0.00000   0.00000   0.00000   0.00000   0.00000  -0.11124  -0.00001   0.00003  -0.00001 ...
   0.00000   0.00000   0.00000   0.00000   0.00000   0.00000   0.00000   0.00000  -0.00001  -0.11124   0.00002   0.00001 ...
   0.00000   0.00000   0.00000   0.00000   0.00000   0.00000   0.00000   0.00000   0.00003   0.00002   0.09610   0.00002 ...
   0.00000   0.00000   0.00000   0.00000   0.00000   0.00000   0.00000   0.00000  -0.00001   0.00001   0.00002  -0.11124 ...
   ...  only 12  components have been written...
 Atom #  4 - Spin component 1
   0.87606  -2.69310  -0.00012   0.00012  -0.00012   0.00078  -0.00078   0.00078
  -2.69310   8.23148   0.00033  -0.00033   0.00033  -0.00219   0.00219  -0.00219
  -0.00012   0.00033  -0.19801  -0.00002   0.00002   0.38764   0.00008  -0.00008
   0.00012  -0.00033  -0.00002  -0.19801  -0.00002   0.00008   0.38764   0.00008
  -0.00012   0.00033   0.00002  -0.00002  -0.19801  -0.00008   0.00008   0.38764
   0.00078  -0.00219   0.38764   0.00008  -0.00008   2.22541  -0.00037   0.00037
  -0.00078   0.00219   0.00008   0.38764   0.00008  -0.00037   2.22541  -0.00037
   0.00078  -0.00219  -0.00008   0.00008   0.38764   0.00037  -0.00037   2.22541
 Atom #  4 - Spin component 2
   0.87606  -2.69310   0.00012  -0.00012   0.00012  -0.00078   0.00078  -0.00078
  -2.69310   8.23148  -0.00033   0.00033  -0.00033   0.00219  -0.00219   0.00219
   0.00012  -0.00033  -0.19801  -0.00002   0.00002   0.38764   0.00008  -0.00008
  -0.00012   0.00033  -0.00002  -0.19801  -0.00002   0.00008   0.38764   0.00008
   0.00012  -0.00033   0.00002  -0.00002  -0.19801  -0.00008   0.00008   0.38764
  -0.00078   0.00219   0.38764   0.00008  -0.00008   2.22541  -0.00037   0.00037
   0.00078  -0.00219   0.00008   0.38764   0.00008  -0.00037   2.22541  -0.00037
  -0.00078   0.00219  -0.00008   0.00008   0.38764   0.00037  -0.00037   2.22541
 
 
 Augmentation waves occupancies Rhoij:
 Atom #  1 - Spin component 1
   0.46652   0.00173   0.00000   0.00000   0.00000   0.00000   0.00000   0.00000   0.00004  -0.00004   0.00000  -0.00004 ...
   0.00173   0.00002   0.00000   0.00000   0.00000   0.00000   0.00000   0.00000   0.00000   0.00000   0.00000   0.00000 ...
   0.00000   0.00000   0.58771  -0.00087   0.00087   0.00117   0.00000   0.00000   0.00000   0.00000   0.00000   0.00000 ...
   0.00000   0.00000  -0.00087   0.58771  -0.00087   0.00000   0.00117   0.00000   0.00000   0.00000   0.00000   0.00000 ...
   0.00000   0.00000   0.00087  -0.00087   0.58771   0.00000   0.00000   0.00117   0.00000   0.00000   0.00000   0.00000 ...
   0.00000   0.00000   0.00117   0.00000   0.00000   0.00000   0.00000   0.00000   0.00000   0.00000   0.00000   0.00000 ...
   0.00000   0.00000   0.00000   0.00117   0.00000   0.00000   0.00000   0.00000   0.00000   0.00000   0.00000   0.00000 ...
   0.00000   0.00000   0.00000   0.00000   0.00117   0.00000   0.00000   0.00000   0.00000   0.00000   0.00000   0.00000 ...
   0.00004   0.00000   0.00000   0.00000   0.00000   0.00000   0.00000   0.00000   0.92896  -0.00003  -0.00007  -0.00003 ...
  -0.00004   0.00000   0.00000   0.00000   0.00000   0.00000   0.00000   0.00000  -0.00003   0.92896  -0.00003   0.00003 ...
   0.00000   0.00000   0.00000   0.00000   0.00000   0.00000   0.00000   0.00000  -0.00007  -0.00003   0.89666  -0.00003 ...
  -0.00004   0.00000   0.00000   0.00000   0.00000   0.00000   0.00000   0.00000  -0.00003   0.00003  -0.00003   0.92896 ...
   ...  only 12  components have been written...
 Atom #  1 - Spin component 2
   0.46898   0.00224   0.00000   0.00000   0.00000   0.00000   0.00000   0.00000  -0.00001   0.00001   0.00000   0.00001 ...
   0.00224   0.00002   0.00000   0.00000   0.00000   0.00000   0.00000   0.00000   0.00000   0.00000   0.00000   0.00000 ...
   0.00000   0.00000   0.59305   0.00049  -0.00049   0.00131   0.00000   0.00000   0.00000   0.00000   0.00000   0.00000 ...
   0.00000   0.00000   0.00049   0.59305   0.00049   0.00000   0.00131   0.00000   0.00000   0.00000   0.00000   0.00000 ...
   0.00000   0.00000  -0.00049   0.00049   0.59305   0.00000   0.00000   0.00131   0.00000   0.00000   0.00000   0.00000 ...
   0.00000   0.00000   0.00131   0.00000   0.00000   0.00000   0.00000   0.00000   0.00000   0.00000   0.00000   0.00000 ...
   0.00000   0.00000   0.00000   0.00131   0.00000   0.00000   0.00000   0.00000   0.00000   0.00000   0.00000   0.00000 ...
   0.00000   0.00000   0.00000   0.00000   0.00131   0.00000   0.00000   0.00000   0.00000   0.00000   0.00000   0.00000 ...
  -0.00001   0.00000   0.00000   0.00000   0.00000   0.00000   0.00000   0.00000   0.97770  -0.00002  -0.00017  -0.00002 ...
   0.00001   0.00000   0.00000   0.00000   0.00000   0.00000   0.00000   0.00000  -0.00002   0.97770  -0.00008   0.00002 ...
   0.00000   0.00000   0.00000   0.00000   0.00000   0.00000   0.00000   0.00000  -0.00017  -0.00008   0.25407  -0.00008 ...
   0.00001   0.00000   0.00000   0.00000   0.00000   0.00000   0.00000   0.00000  -0.00002   0.00002  -0.00008   0.97770 ...
   ...  only 12  components have been written...
 Atom #  4 - Spin component 1
   0.96166   0.00968   0.00840  -0.00840   0.00840  -0.00027   0.00027  -0.00027
   0.00968   0.00044  -0.00168   0.00168  -0.00168   0.00001  -0.00001   0.00001
   0.00840  -0.00168   0.90531  -0.00069   0.00069   0.02081   0.00003  -0.00003
  -0.00840   0.00168  -0.00069   0.90531  -0.00069   0.00003   0.02081   0.00003
   0.00840  -0.00168   0.00069  -0.00069   0.90531  -0.00003   0.00003   0.02081
  -0.00027   0.00001   0.02081   0.00003  -0.00003   0.00057   0.00000   0.00000
   0.00027  -0.00001   0.00003   0.02081   0.00003   0.00000   0.00057   0.00000
  -0.00027   0.00001  -0.00003   0.00003   0.02081   0.00000   0.00000   0.00057
 Atom #  4 - Spin component 2
   0.96166   0.00968  -0.00840   0.00840  -0.00840   0.00027  -0.00027   0.00027
   0.00968   0.00044   0.00168  -0.00168   0.00168  -0.00001   0.00001  -0.00001
  -0.00840   0.00168   0.90531  -0.00069   0.00069   0.02081   0.00003  -0.00003
   0.00840  -0.00168  -0.00069   0.90531  -0.00069   0.00003   0.02081   0.00003
  -0.00840   0.00168   0.00069  -0.00069   0.90531  -0.00003   0.00003   0.02081
   0.00027  -0.00001   0.02081   0.00003  -0.00003   0.00057   0.00000   0.00000
  -0.00027   0.00001   0.00003   0.02081   0.00003   0.00000   0.00057   0.00000
   0.00027  -0.00001  -0.00003   0.00003   0.02081   0.00000   0.00000   0.00057
 
 "PAW+U" part of augmentation waves occupancies Rhoij:
 Atom #  1 - L=2 ONLY - Spin component 1
   0.92896  -0.00003  -0.00007  -0.00003   0.00000  -0.01059   0.00000   0.00000   0.00000   0.00000
  -0.00003   0.92896  -0.00003   0.00003   0.00006   0.00000  -0.01059   0.00000   0.00000   0.00000
  -0.00007  -0.00003   0.89666  -0.00003   0.00000  -0.00001   0.00000  -0.01282   0.00000   0.00000
  -0.00003   0.00003  -0.00003   0.92896  -0.00006   0.00000   0.00000   0.00000  -0.01059   0.00000
   0.00000   0.00006   0.00000  -0.00006   0.89666   0.00000   0.00000   0.00000   0.00000  -0.01282
  -0.01059   0.00000  -0.00001   0.00000   0.00000   0.00073   0.00000   0.00000   0.00000   0.00000
   0.00000  -0.01059   0.00000   0.00000   0.00000   0.00000   0.00073   0.00000   0.00000   0.00000
   0.00000   0.00000  -0.01282   0.00000   0.00000   0.00000   0.00000   0.00279   0.00000   0.00000
   0.00000   0.00000   0.00000  -0.01059   0.00000   0.00000   0.00000   0.00000   0.00073   0.00000
   0.00000   0.00000   0.00000   0.00000  -0.01282   0.00000   0.00000   0.00000   0.00000   0.00279
 Atom #  1 - L=2 ONLY - Spin component 2
   0.97770  -0.00002  -0.00017  -0.00002   0.00000  -0.00552   0.00000   0.00000   0.00000   0.00000
  -0.00002   0.97770  -0.00008   0.00002   0.00014   0.00000  -0.00552   0.00000   0.00000   0.00000
  -0.00017  -0.00008   0.25407  -0.00008   0.00000   0.00002   0.00001   0.01878   0.00001   0.00000
  -0.00002   0.00002  -0.00008   0.97770  -0.00014   0.00000   0.00000   0.00000  -0.00552   0.00000
   0.00000   0.00014   0.00000  -0.00014   0.25407   0.00000  -0.00002   0.00000   0.00002   0.01878
  -0.00552   0.00000   0.00002   0.00000   0.00000   0.00060   0.00000   0.00000   0.00000   0.00000
   0.00000  -0.00552   0.00001   0.00000  -0.00002   0.00000   0.00060   0.00000   0.00000   0.00000
   0.00000   0.00000   0.01878   0.00000   0.00000   0.00000   0.00000   0.00152   0.00000   0.00000
   0.00000   0.00000   0.00001  -0.00552   0.00002   0.00000   0.00000   0.00000   0.00060   0.00000
   0.00000   0.00000   0.00000   0.00000   0.01878   0.00000   0.00000   0.00000   0.00000   0.00152
 Atom #  2 - L=2 ONLY - Spin component 1
   0.97770  -0.00002  -0.00017  -0.00002   0.00000  -0.00552   0.00000   0.00000   0.00000   0.00000
  -0.00002   0.97770  -0.00008   0.00002   0.00014   0.00000  -0.00552   0.00000   0.00000   0.00000
  -0.00017  -0.00008   0.25407  -0.00008   0.00000   0.00002   0.00001   0.01878   0.00001   0.00000
  -0.00002   0.00002  -0.00008   0.97770  -0.00014   0.00000   0.00000   0.00000  -0.00552   0.00000
   0.00000   0.00014   0.00000  -0.00014   0.25407   0.00000  -0.00002   0.00000   0.00002   0.01878
  -0.00552   0.00000   0.00002   0.00000   0.00000   0.00060   0.00000   0.00000   0.00000   0.00000
   0.00000  -0.00552   0.00001   0.00000  -0.00002   0.00000   0.00060   0.00000   0.00000   0.00000
   0.00000   0.00000   0.01878   0.00000   0.00000   0.00000   0.00000   0.00152   0.00000   0.00000
   0.00000   0.00000   0.00001  -0.00552   0.00002   0.00000   0.00000   0.00000   0.00060   0.00000
   0.00000   0.00000   0.00000   0.00000   0.01878   0.00000   0.00000   0.00000   0.00000   0.00152
 Atom #  2 - L=2 ONLY - Spin component 2
   0.92896  -0.00003  -0.00007  -0.00003   0.00000  -0.01059   0.00000   0.00000   0.00000   0.00000
  -0.00003   0.92896  -0.00003   0.00003   0.00006   0.00000  -0.01059   0.00000   0.00000   0.00000
  -0.00007  -0.00003   0.89666  -0.00003   0.00000  -0.00001   0.00000  -0.01282   0.00000   0.00000
  -0.00003   0.00003  -0.00003   0.92896  -0.00006   0.00000   0.00000   0.00000  -0.01059   0.00000
   0.00000   0.00006   0.00000  -0.00006   0.89666   0.00000   0.00000   0.00000   0.00000  -0.01282
  -0.01059   0.00000  -0.00001   0.00000   0.00000   0.00073   0.00000   0.00000   0.00000   0.00000
   0.00000  -0.01059   0.00000   0.00000   0.00000   0.00000   0.00073   0.00000   0.00000   0.00000
   0.00000   0.00000  -0.01282   0.00000   0.00000   0.00000   0.00000   0.00279   0.00000   0.00000
   0.00000   0.00000   0.00000  -0.01059   0.00000   0.00000   0.00000   0.00000   0.00073   0.00000
   0.00000   0.00000   0.00000   0.00000  -0.01282   0.00000   0.00000   0.00000   0.00000   0.00279
 
---------- LDA+U DATA ---------------------------------------------------

====== For Atom    1, occupations for correlated orbitals. lpawu =   2

Atom   1. Occ. for lpawu and for spin  1 =   4.48144
Atom   1. Occ. for lpawu and for spin  2 =   2.91186
=> On atom   1,  local Mag. for lpawu is    -0.15695770E+01

== Occupation matrix for correlated orbitals:

Occupation matrix for spin  1
     0.89013    0.00000   -0.00005    0.00000    0.00000
     0.00000    0.89013   -0.00003    0.00000    0.00005
    -0.00005   -0.00003    0.90552   -0.00003    0.00000
     0.00000    0.00000   -0.00003    0.89013   -0.00005
     0.00000    0.00005    0.00000   -0.00005    0.90552


Occupation matrix for spin  2
     0.89576   -0.00002   -0.00021   -0.00002    0.00000
    -0.00002    0.89576   -0.00011    0.00002    0.00019
    -0.00021   -0.00011    0.11229   -0.00011    0.00000
    -0.00002    0.00002   -0.00011    0.89576   -0.00019
     0.00000    0.00019    0.00000   -0.00019    0.11229


====== For Atom    2, occupations for correlated orbitals. lpawu =   2

Atom   2. Occ. for lpawu and for spin  1 =   2.91186
Atom   2. Occ. for lpawu and for spin  2 =   4.48144
=> On atom   2,  local Mag. for lpawu is     0.15695770E+01

== Occupation matrix for correlated orbitals:

Occupation matrix for spin  1
     0.89576   -0.00002   -0.00021   -0.00002    0.00000
    -0.00002    0.89576   -0.00011    0.00002    0.00019
    -0.00021   -0.00011    0.11229   -0.00011    0.00000
    -0.00002    0.00002   -0.00011    0.89576   -0.00019
     0.00000    0.00019    0.00000   -0.00019    0.11229


Occupation matrix for spin  2
     0.89013    0.00000   -0.00005    0.00000    0.00000
     0.00000    0.89013   -0.00003    0.00000    0.00005
    -0.00005   -0.00003    0.90552   -0.00003    0.00000
     0.00000    0.00000   -0.00003    0.89013   -0.00005
     0.00000    0.00005    0.00000   -0.00005    0.90552


 
================================================================================

 ----iterations are completed or convergence reached----

 Mean square residual over all n,k,spin=   9.4409E-06; max=  3.7383E-03
   0.1250  0.1250  0.1250    1  4.79653E-05 kpt; spin; max resid(k); each band:
 1.35E-09 1.94E-09 1.19E-07 1.31E-07 6.24E-08 1.45E-08 9.47E-09 4.04E-08
 2.99E-07 5.92E-08 6.04E-08 1.62E-07 4.61E-08 2.48E-07 2.33E-07 2.03E-07
 7.26E-07 4.99E-08 1.90E-07 3.05E-08 3.86E-08 8.55E-09 7.78E-10 2.73E-08
 1.86E-08 7.28E-09 2.19E-08 5.80E-09 5.79E-08 7.97E-09 2.87E-08 5.42E-08
 2.22E-08 6.21E-08 7.59E-08 1.34E-08 1.32E-07 3.79E-08 9.68E-06 4.80E-05
   0.3750  0.1250  0.1250    1  1.40666E-06 kpt; spin; max resid(k); each band:
 3.67E-09 1.28E-08 9.94E-08 8.64E-08 9.51E-08 1.13E-07 5.88E-08 7.85E-08
 4.28E-08 2.77E-08 9.46E-08 3.57E-08 7.35E-08 2.20E-08 8.66E-08 5.75E-08
 2.86E-08 1.19E-08 2.44E-08 2.70E-08 1.97E-08 3.91E-08 8.59E-08 9.58E-09
 1.31E-08 8.93E-09 9.24E-09 1.79E-08 1.63E-08 1.16E-08 7.71E-09 6.85E-09
 1.84E-08 1.04E-07 3.05E-08 4.99E-08 6.62E-08 7.14E-08 1.41E-06 8.68E-07
  -0.3750  0.1250  0.1250    1  2.40010E-04 kpt; spin; max resid(k); each band:
 3.11E-09 3.35E-08 8.11E-08 5.54E-08 6.10E-08 2.65E-07 1.13E-07 5.78E-08
 1.43E-07 1.92E-07 7.09E-08 2.69E-08 1.47E-08 2.12E-08 4.31E-08 1.44E-07
 8.75E-09 1.22E-08 3.78E-08 1.63E-08 1.25E-08 5.98E-09 6.32E-08 1.55E-08
 1.93E-09 1.13E-08 8.25E-09 3.27E-08 1.52E-08 4.41E-08 4.47E-09 5.46E-09
 1.52E-08 2.39E-08 3.12E-08 4.73E-08 4.52E-08 2.73E-07 2.91E-05 2.40E-04
  -0.1250  0.1250  0.1250    1  3.73835E-03 kpt; spin; max resid(k); each band:
 2.32E-09 3.86E-09 1.36E-07 5.13E-08 1.06E-07 5.25E-08 1.62E-07 6.15E-08
 9.94E-09 8.89E-08 4.75E-08 3.35E-08 3.18E-08 1.62E-07 6.14E-08 1.24E-07
 6.53E-08 2.16E-08 1.75E-07 2.35E-08 4.11E-08 1.32E-08 1.54E-08 3.42E-09
 2.59E-08 1.42E-08 1.22E-08 1.67E-08 9.25E-09 1.99E-08 4.72E-08 2.10E-08
 1.61E-08 1.45E-08 1.91E-08 1.43E-07 8.25E-08 7.55E-08 7.97E-07 3.74E-03
   0.3750  0.3750  0.1250    1  1.45892E-06 kpt; spin; max resid(k); each band:
 2.41E-08 2.27E-09 2.50E-07 6.28E-08 7.69E-08 6.82E-08 1.16E-07 5.53E-08
 1.35E-07 1.27E-07 6.29E-08 1.42E-07 5.05E-08 7.18E-08 7.47E-08 9.70E-08
 2.79E-08 1.94E-08 2.76E-08 3.80E-08 3.98E-08 2.43E-09 1.11E-08 2.98E-08
 1.15E-09 5.85E-09 1.35E-08 3.33E-08 3.78E-08 1.51E-08 5.57E-08 1.57E-08
 1.50E-07 6.26E-08 2.60E-08 2.05E-08 8.32E-08 3.06E-07 2.27E-07 1.46E-06
  -0.3750  0.3750  0.1250    1  5.49688E-07 kpt; spin; max resid(k); each band:
 2.09E-08 3.73E-08 1.07E-07 1.03E-07 1.32E-07 1.55E-07 1.20E-07 1.02E-07
 5.97E-08 4.55E-08 7.45E-08 2.35E-08 2.56E-08 1.71E-08 1.69E-07 1.22E-07
 6.54E-08 1.83E-08 2.48E-08 4.56E-08 3.49E-08 3.39E-08 1.25E-08 2.30E-08
 1.14E-09 5.44E-09 3.19E-08 2.85E-08 1.02E-08 7.71E-09 3.96E-08 1.26E-08
 1.90E-08 1.83E-08 2.99E-08 2.77E-08 2.52E-07 2.87E-08 5.25E-07 5.50E-07
  -0.1250  0.3750  0.1250    1  5.04244E-06 kpt; spin; max resid(k); each band:
 8.91E-09 3.53E-08 1.84E-07 6.56E-08 5.78E-08 1.75E-07 6.78E-08 4.57E-08
 1.09E-07 3.30E-08 5.31E-08 3.00E-08 4.93E-09 2.23E-08 2.09E-07 1.18E-07
 9.73E-09 5.50E-08 2.90E-08 3.04E-08 7.47E-08 1.51E-08 5.78E-08 1.49E-08
 4.93E-09 6.28E-09 1.52E-08 1.36E-08 5.02E-08 2.16E-08 2.34E-08 8.79E-09
 3.40E-08 1.56E-08 6.26E-08 4.52E-08 1.41E-08 1.08E-07 2.77E-06 5.04E-06
  -0.3750 -0.3750  0.1250    1  7.18077E-04 kpt; spin; max resid(k); each band:
 4.11E-09 3.90E-08 1.42E-07 9.65E-08 3.84E-08 8.81E-08 6.34E-08 1.54E-07
 9.79E-08 8.45E-08 1.79E-07 1.03E-07 2.77E-08 2.46E-08 2.13E-07 8.22E-08
 3.81E-08 7.31E-08 1.14E-07 7.23E-08 5.10E-08 3.28E-09 2.90E-07 5.24E-09
 4.35E-09 3.27E-09 6.43E-09 3.68E-08 5.91E-08 7.10E-08 1.33E-08 2.17E-08
 1.31E-08 1.94E-08 2.62E-08 2.56E-07 1.63E-07 1.13E-06 9.97E-05 7.18E-04
  -0.1250 -0.3750  0.1250    1  1.18079E-04 kpt; spin; max resid(k); each band:
 2.14E-08 8.14E-09 1.84E-07 9.85E-08 6.36E-08 4.83E-08 3.95E-08 1.53E-07
 3.01E-08 8.49E-08 1.77E-07 5.19E-08 3.76E-08 4.51E-08 5.88E-08 8.93E-08
 2.85E-08 3.17E-08 3.45E-08 5.16E-08 1.64E-08 2.93E-08 5.05E-08 2.88E-08
 4.00E-09 9.25E-09 2.82E-08 6.45E-08 3.71E-08 1.50E-08 1.44E-08 3.19E-08
 8.99E-08 1.17E-08 2.30E-08 1.68E-07 8.28E-08 1.30E-07 2.40E-05 1.18E-04
  -0.1250 -0.1250  0.1250    1  4.17755E-04 kpt; spin; max resid(k); each band:
 2.38E-09 3.43E-09 9.05E-08 9.20E-08 4.50E-08 1.75E-07 2.94E-08 3.60E-08
 4.23E-08 3.19E-08 1.86E-07 1.04E-07 7.06E-08 2.90E-07 1.79E-07 1.79E-07
 5.63E-08 5.48E-08 1.25E-07 3.19E-08 2.82E-08 6.22E-08 5.72E-08 3.07E-09
 1.48E-08 5.38E-09 1.45E-08 1.58E-08 1.95E-08 4.39E-09 2.55E-08 1.33E-08
 1.44E-08 1.50E-07 1.91E-08 7.01E-08 1.05E-07 3.09E-07 2.32E-05 4.18E-04
   0.1250  0.1250  0.3750    1  5.57046E-04 kpt; spin; max resid(k); each band:
 1.43E-09 2.40E-09 2.46E-07 1.06E-07 5.39E-08 6.20E-08 4.24E-08 7.96E-09
 1.76E-07 1.39E-07 4.24E-08 7.55E-08 5.77E-08 4.37E-08 1.45E-07 3.58E-07
 2.83E-07 8.81E-08 6.07E-07 3.20E-07 1.78E-08 1.19E-08 3.14E-08 8.54E-09
 1.19E-08 7.80E-09 2.39E-08 4.29E-09 3.18E-08 3.98E-08 8.52E-09 1.24E-08
 3.30E-08 7.21E-08 3.02E-08 7.37E-08 1.83E-08 4.15E-08 2.52E-06 5.57E-04
   0.3750  0.1250  0.3750    1  5.58118E-04 kpt; spin; max resid(k); each band:
 3.06E-09 3.92E-08 5.67E-08 1.62E-07 4.72E-08 1.08E-07 4.29E-08 6.93E-08
 2.70E-08 1.45E-08 7.74E-08 4.71E-08 5.51E-08 4.69E-08 6.36E-08 1.66E-07
 2.66E-08 3.24E-08 3.27E-08 2.12E-08 6.64E-08 4.28E-08 2.74E-08 1.82E-08
 4.25E-09 6.07E-09 3.03E-08 7.34E-09 1.00E-08 7.16E-09 4.97E-08 7.61E-08
 9.53E-08 2.18E-08 3.56E-08 1.95E-07 1.93E-07 3.55E-07 9.37E-07 5.58E-04
  -0.3750  0.1250  0.3750    1  3.22177E-05 kpt; spin; max resid(k); each band:
 2.98E-08 3.83E-09 9.34E-08 6.68E-08 3.65E-08 1.61E-07 1.85E-07 3.92E-08
 1.65E-07 7.86E-08 9.57E-08 1.65E-08 1.35E-08 5.19E-08 8.01E-08 4.89E-08
 3.96E-08 1.94E-08 6.64E-08 2.48E-08 2.50E-08 1.91E-08 3.20E-08 1.44E-08
 2.15E-09 1.11E-08 2.30E-08 2.29E-08 1.08E-08 1.36E-08 5.47E-09 6.06E-09
 4.42E-08 1.26E-08 2.32E-08 8.00E-09 1.78E-08 2.97E-08 1.75E-07 3.22E-05
  -0.1250  0.1250  0.3750    1  1.68853E-04 kpt; spin; max resid(k); each band:
 3.43E-09 3.10E-09 7.50E-08 1.31E-07 7.53E-08 1.49E-07 8.21E-08 5.63E-08
 1.03E-07 6.65E-08 2.35E-08 2.64E-07 3.50E-08 7.18E-08 7.61E-08 1.54E-07
 1.66E-08 3.84E-08 4.81E-08 1.71E-08 1.23E-08 1.91E-08 1.60E-08 1.86E-08
 8.20E-09 9.99E-09 2.82E-08 2.78E-08 2.20E-08 8.23E-09 1.29E-08 1.23E-08
 3.53E-08 3.06E-08 2.00E-08 2.44E-08 5.33E-07 3.72E-07 5.16E-07 1.69E-04
   0.3750  0.3750  0.3750    1  4.67907E-05 kpt; spin; max resid(k); each band:
 1.69E-08 3.33E-08 1.52E-07 5.86E-08 1.07E-07 3.42E-08 6.94E-08 1.05E-07
 9.77E-08 6.43E-08 5.82E-08 3.98E-08 1.05E-08 1.03E-07 5.45E-08 9.29E-08
 1.38E-08 8.63E-09 6.02E-08 4.08E-08 4.30E-08 2.19E-08 3.23E-08 7.39E-08
 3.52E-09 6.09E-08 1.89E-08 1.57E-08 4.88E-09 1.86E-08 3.12E-08 1.26E-08
 2.25E-08 2.19E-08 1.57E-08 1.22E-07 3.13E-08 6.98E-07 8.32E-06 4.68E-05
  -0.3750  0.3750  0.3750    1  1.81465E-07 kpt; spin; max resid(k); each band:
 3.09E-08 3.37E-08 6.50E-08 1.01E-07 1.77E-07 7.03E-08 5.40E-08 1.81E-07
 1.99E-08 2.81E-08 1.44E-07 6.05E-08 1.38E-08 3.94E-08 3.75E-08 5.80E-08
 8.27E-09 1.21E-08 1.78E-08 2.61E-08 7.88E-09 3.03E-08 7.43E-09 2.67E-08
 2.91E-09 2.07E-09 2.52E-08 1.78E-08 9.28E-09 6.22E-08 3.00E-08 8.15E-09
 8.09E-08 3.11E-08 3.00E-08 6.65E-08 2.67E-08 6.71E-08 1.66E-08 8.16E-08
  -0.1250  0.3750  0.3750    1  5.20465E-04 kpt; spin; max resid(k); each band:
 2.55E-08 1.81E-08 2.72E-07 6.25E-08 4.43E-08 5.44E-08 5.65E-08 1.78E-07
 4.17E-08 4.50E-08 5.17E-08 5.27E-08 2.23E-08 5.05E-08 4.11E-08 1.73E-07
 1.30E-08 1.32E-08 3.13E-08 7.53E-08 2.70E-08 3.04E-08 1.28E-08 5.26E-08
 2.69E-09 1.58E-08 1.04E-08 1.68E-08 2.11E-08 1.16E-08 1.34E-08 3.02E-08
 2.18E-08 2.79E-08 6.08E-08 2.28E-08 1.39E-07 2.15E-08 7.22E-08 5.20E-04
  -0.3750 -0.3750  0.3750    1  6.23254E-05 kpt; spin; max resid(k); each band:
 3.85E-09 1.14E-08 7.64E-08 4.23E-08 1.10E-07 1.02E-07 1.23E-07 2.56E-07
 1.02E-07 1.06E-07 8.05E-08 5.87E-08 8.63E-09 2.38E-08 5.21E-08 2.24E-07
 1.34E-08 3.10E-08 2.30E-08 1.20E-08 1.87E-08 2.77E-08 1.10E-07 5.34E-09
 4.76E-09 2.62E-09 1.66E-08 5.03E-08 2.90E-08 4.13E-08 6.47E-09 1.84E-08
 2.49E-08 2.27E-08 1.05E-08 1.13E-07 1.55E-08 1.33E-06 2.22E-07 6.23E-05
  -0.1250 -0.3750  0.3750    1  5.91985E-05 kpt; spin; max resid(k); each band:
 9.78E-09 3.96E-09 6.25E-08 1.26E-07 2.34E-07 1.44E-07 5.48E-08 4.43E-08
 6.43E-08 3.22E-08 3.49E-08 9.66E-09 3.91E-08 1.88E-07 7.65E-08 2.14E-07
 2.63E-08 3.43E-08 9.13E-08 1.12E-07 2.82E-08 1.55E-08 3.73E-08 6.59E-08
 2.10E-09 8.70E-09 1.72E-08 2.73E-08 2.00E-08 5.01E-08 1.81E-08 1.57E-08
 6.94E-08 3.79E-08 1.03E-07 1.61E-07 2.27E-07 1.88E-07 1.25E-06 5.92E-05
  -0.1250 -0.1250  0.3750    1  3.82389E-06 kpt; spin; max resid(k); each band:
 3.74E-09 3.06E-09 4.57E-08 1.82E-07 7.60E-08 7.23E-08 1.04E-07 5.35E-08
 2.60E-08 2.74E-08 4.77E-08 3.70E-08 9.57E-08 2.61E-07 5.92E-08 8.64E-08
 1.40E-07 1.28E-08 1.78E-08 4.36E-08 4.02E-08 2.53E-08 1.13E-08 3.90E-08
 9.58E-09 6.72E-09 1.18E-08 4.24E-08 3.00E-08 1.28E-08 4.05E-08 1.33E-08
 2.87E-08 1.03E-07 3.67E-08 1.88E-07 9.30E-08 9.78E-07 7.81E-07 3.82E-06
 reduced coordinates (array xred) for    4 atoms
       0.000000000000      0.000000000000      0.000000000000
       0.000000000000      0.000000000000      0.500000000000
       0.500000000000      0.500000000000      0.250000000000
       0.500000000000      0.500000000000      0.750000000000
 rms dE/dt=  3.0363E-31; max dE/dt=  0.0000E+00; dE/dt below (all hartree)
    1       0.000000000000      0.000000000000      0.000000000000
    2       0.000000000000      0.000000000000      0.000000000000
    3       0.000000000000      0.000000000000      0.000000000000
    4       0.000000000000      0.000000000000      0.000000000000
 
 cartesian coordinates (angstrom) at end:
    1      0.00000000000000     0.00000000000000     0.00000000000000
    2      2.09554174601640     2.09554174601640     0.00000000000000
    3      2.09554174601640     2.09554174601640     2.09554174601640
    4      4.19108349203280     4.19108349203280     2.09554174601640

 cartesian forces (hartree/bohr) at end:
    1      0.00000000000000     0.00000000000000     0.00000000000000
    2      0.00000000000000     0.00000000000000     0.00000000000000
    3      0.00000000000000     0.00000000000000     0.00000000000000
    4      0.00000000000000     0.00000000000000     0.00000000000000
 frms,max,avg= 2.8753097E-32 4.9801825E-32   0.000E+00  0.000E+00  0.000E+00 h/b

 cartesian forces (eV/Angstrom) at end:
    1      0.00000000000000     0.00000000000000     0.00000000000000
    2      0.00000000000000     0.00000000000000     0.00000000000000
    3      0.00000000000000     0.00000000000000     0.00000000000000
    4      0.00000000000000     0.00000000000000     0.00000000000000
 frms,max,avg= 1.4785436E-30 2.5609126E-30   0.000E+00  0.000E+00  0.000E+00 e/A
 length scales=  7.920000000000  7.920000000000  7.920000000000 bohr
              =  4.191083492033  4.191083492033  4.191083492033 angstroms
 prteigrs : about to open file tldau_4o_EIG
 Fermi (or HOMO) energy (hartree) =   0.28005   Average Vxc (hartree)=  -0.48104
 Eigenvalues (hartree) for nkpt=  20  k points:
 kpt#   1, nband= 40, wtk=  0.03125, kpt=  0.1250  0.1250  0.1250 (reduced coord)
  -0.39400  -0.34331   0.02795   0.10057   0.10600   0.15535   0.16190   0.16561
   0.17939   0.19947   0.21924   0.22621   0.23628   0.23723   0.25945   0.26706
   0.40871   0.42921   0.43178   0.55394   0.67639   0.77733   0.83287   0.87548
   0.96198   0.96665   1.02342   1.07690   1.13702   1.15147   1.18406   1.18764
   1.21259   1.29000   1.34852   1.35514   1.39652   1.40952   1.56874   1.62605
 kpt#   2, nband= 40, wtk=  0.06250, kpt=  0.3750  0.1250  0.1250 (reduced coord)
  -0.36173  -0.34125   0.06423   0.07025   0.10826   0.11015   0.12716   0.15449
   0.17560   0.18871   0.19940   0.22347   0.23219   0.23700   0.26179   0.27122
   0.42102   0.43359   0.52422   0.59263   0.69025   0.71912   0.72426   0.81803
   0.85811   0.87361   1.00988   1.06391   1.14361   1.21238   1.24129   1.37664
   1.40854   1.41439   1.45364   1.46750   1.47148   1.49671   1.55702   1.61364
 kpt#   3, nband= 40, wtk=  0.06250, kpt= -0.3750  0.1250  0.1250 (reduced coord)
  -0.34580  -0.34012   0.02998   0.07745   0.10328   0.11020   0.12990   0.15939
   0.17793   0.19077   0.19262   0.21919   0.22705   0.23913   0.26306   0.27047
   0.42872   0.44089   0.54539   0.55618   0.68173   0.70611   0.73398   0.78961
   0.83415   0.89099   0.95441   1.11831   1.17543   1.23260   1.33435   1.34811
   1.37609   1.37807   1.42554   1.48180   1.48993   1.60215   1.65533   1.71283
 kpt#   4, nband= 40, wtk=  0.06250, kpt= -0.1250  0.1250  0.1250 (reduced coord)
  -0.38149  -0.34257   0.04817   0.09762   0.10286   0.12661   0.15242   0.15811
   0.16897   0.18843   0.21425   0.22313   0.23560   0.24069   0.25736   0.27064
   0.41597   0.42745   0.47370   0.59793   0.66453   0.74033   0.80188   0.84813
   0.87330   0.94165   1.00586   1.09112   1.12218   1.17316   1.17748   1.30226
   1.31271   1.35505   1.40002   1.41882   1.43462   1.46047   1.50590   1.63008
 kpt#   5, nband= 40, wtk=  0.03125, kpt=  0.3750  0.3750  0.1250 (reduced coord)
  -0.35271  -0.34333   0.04123   0.07035   0.10966   0.11009   0.14125   0.15789
   0.17150   0.19917   0.20031   0.21871   0.23188   0.24228   0.25517   0.25883
   0.41877   0.43531   0.55668   0.58331   0.67110   0.71400   0.74540   0.76474
   0.84863   0.90757   0.91981   1.13340   1.16717   1.21967   1.34908   1.38569
   1.38909   1.43316   1.45409   1.45754   1.50067   1.51475   1.55320   1.55616
 kpt#   6, nband= 40, wtk=  0.06250, kpt= -0.3750  0.3750  0.1250 (reduced coord)
  -0.34067  -0.33832   0.04762   0.07970   0.08838   0.09862   0.12418   0.14159
   0.17959   0.19036   0.19965   0.22469   0.23310   0.23701   0.25565   0.26198
   0.42607   0.43546   0.59831   0.60708   0.65610   0.68689   0.70998   0.73364
   0.85095   0.87145   1.00560   1.09493   1.17254   1.23769   1.29410   1.39279
   1.40039   1.41593   1.44368   1.45567   1.47354   1.55469   1.66643   1.68778
 kpt#   7, nband= 40, wtk=  0.06250, kpt= -0.1250  0.3750  0.1250 (reduced coord)
  -0.34780  -0.33843   0.04441   0.08136   0.10249   0.10920   0.11393   0.14290
   0.18515   0.19091   0.20193   0.21794   0.22504   0.24074   0.26080   0.26402
   0.42164   0.43998   0.56660   0.58871   0.68437   0.70238   0.71811   0.76174
   0.84858   0.85184   1.00923   1.10843   1.18202   1.21773   1.24306   1.38314
   1.39845   1.41043   1.46179   1.46990   1.49140   1.58276   1.64090   1.65003
 kpt#   8, nband= 40, wtk=  0.03125, kpt= -0.3750 -0.3750  0.1250 (reduced coord)
  -0.35091  -0.34512   0.03460   0.07056   0.10826   0.11988   0.13811   0.17003
   0.17259   0.18365   0.19704   0.21792   0.23217   0.23793   0.26331   0.27064
   0.43152   0.43658   0.52593   0.54798   0.69155   0.70626   0.75369   0.81924
   0.83717   0.91206   0.92090   1.09252   1.17157   1.21709   1.33135   1.37040
   1.38546   1.39539   1.43046   1.50434   1.50644   1.56732   1.61350   1.63580
 kpt#   9, nband= 40, wtk=  0.06250, kpt= -0.1250 -0.3750  0.1250 (reduced coord)
  -0.35295  -0.35040   0.05415   0.06824   0.10842   0.11784   0.13888   0.15785
   0.16865   0.18619   0.20593   0.22402   0.23465   0.23944   0.25253   0.26892
   0.42014   0.42889   0.55741   0.56749   0.69617   0.70702   0.74874   0.77404
   0.86448   0.89187   0.95582   1.04336   1.21958   1.25396   1.31290   1.37636
   1.38988   1.41103   1.41442   1.46079   1.47547   1.47972   1.57120   1.62244
 kpt#  10, nband= 40, wtk=  0.03125, kpt= -0.1250 -0.1250  0.1250 (reduced coord)
  -0.38557  -0.35456   0.05047   0.10479   0.11036   0.13536   0.15397   0.15547
   0.17900   0.20305   0.20647   0.22471   0.23280   0.24545   0.26263   0.26434
   0.40561   0.43270   0.46615   0.54040   0.70140   0.79150   0.83547   0.85784
   0.90196   0.93308   0.96261   1.11763   1.13747   1.15716   1.20341   1.21408
   1.26018   1.31095   1.37095   1.40638   1.41048   1.46882   1.53495   1.61937
 kpt#  11, nband= 40, wtk=  0.03125, kpt=  0.1250  0.1250  0.3750 (reduced coord)
  -0.38959  -0.34939   0.04046   0.10458   0.10867   0.13798   0.15845   0.16442
   0.18754   0.19181   0.20750   0.22614   0.22933   0.23959   0.26191   0.27867
   0.42009   0.42544   0.43846   0.54909   0.68598   0.78840   0.83775   0.84790
   0.92243   0.98353   1.03697   1.06274   1.07715   1.13330   1.18797   1.24061
   1.26244   1.32837   1.33924   1.38496   1.39472   1.44753   1.54077   1.63277
 kpt#  12, nband= 40, wtk=  0.06250, kpt=  0.3750  0.1250  0.3750 (reduced coord)
  -0.36464  -0.33807   0.07124   0.07769   0.09391   0.11520   0.12415   0.14322
   0.17673   0.19062   0.21062   0.22228   0.23096   0.23955   0.25377   0.26816
   0.41714   0.43389   0.52795   0.63020   0.66771   0.70936   0.74461   0.78710
   0.84039   0.89466   1.03733   1.07424   1.15688   1.17679   1.20960   1.38117
   1.41310   1.42333   1.42679   1.45842   1.48248   1.50858   1.52952   1.59608
 kpt#  13, nband= 40, wtk=  0.06250, kpt= -0.3750  0.1250  0.3750 (reduced coord)
  -0.34393  -0.34205   0.03494   0.07087   0.10096   0.11287   0.13242   0.15516
   0.17527   0.19105   0.20133   0.21911   0.22920   0.23918   0.26084   0.26376
   0.42862   0.43380   0.56352   0.57449   0.66825   0.70106   0.73919   0.76025
   0.84054   0.89117   0.95408   1.11314   1.18334   1.25710   1.32652   1.35869
   1.38727   1.40636   1.43571   1.47243   1.49325   1.51743   1.61348   1.68545
 kpt#  14, nband= 40, wtk=  0.06250, kpt= -0.1250  0.1250  0.3750 (reduced coord)
  -0.37104  -0.35501   0.06282   0.09271   0.11215   0.11865   0.14040   0.15741
   0.17262   0.18537   0.21836   0.22490   0.23227   0.23870   0.25507   0.26912
   0.40924   0.42756   0.51531   0.56271   0.71838   0.74808   0.77247   0.81163
   0.87726   0.90923   0.97919   1.02258   1.20656   1.23268   1.23473   1.26726
   1.37293   1.38735   1.40662   1.43906   1.44789   1.47694   1.49838   1.57641
 kpt#  15, nband= 40, wtk=  0.03125, kpt=  0.3750  0.3750  0.3750 (reduced coord)
  -0.35746  -0.33857   0.06156   0.07581   0.09119   0.11036   0.12151   0.15507
   0.17911   0.20000   0.20644   0.20883   0.22672   0.24338   0.25492   0.26961
   0.42255   0.42810   0.55280   0.61863   0.66163   0.70819   0.71551   0.77637
   0.87299   0.88481   0.99284   1.02821   1.21290   1.25830   1.27966   1.34448
   1.39036   1.41391   1.43591   1.45232   1.47367   1.52650   1.57833   1.59486
 kpt#  16, nband= 40, wtk=  0.06250, kpt= -0.3750  0.3750  0.3750 (reduced coord)
  -0.34023  -0.33894   0.05978   0.07088   0.09187   0.10378   0.12129   0.12570
   0.18316   0.19116   0.20542   0.22539   0.23402   0.23915   0.24720   0.25796
   0.42357   0.43501   0.62449   0.63376   0.65024   0.67348   0.71060   0.71429
   0.83436   0.85927   1.07822   1.08516   1.15396   1.15642   1.32634   1.41458
   1.42455   1.43943   1.44725   1.47094   1.50391   1.51160   1.61377   1.62461
 kpt#  17, nband= 40, wtk=  0.06250, kpt= -0.1250  0.3750  0.3750 (reduced coord)
  -0.34698  -0.33931   0.05821   0.06506   0.09699   0.11230   0.11952   0.13877
   0.18413   0.19399   0.20788   0.21871   0.22579   0.24362   0.25210   0.26087
   0.42431   0.43044   0.58738   0.62635   0.65217   0.69260   0.72493   0.73179
   0.84450   0.86786   1.01362   1.07851   1.16427   1.24080   1.36428   1.38829
   1.40621   1.40916   1.44395   1.45722   1.46512   1.47344   1.58453   1.70893
 kpt#  18, nband= 40, wtk=  0.03125, kpt= -0.3750 -0.3750  0.3750 (reduced coord)
  -0.35671  -0.33930   0.04755   0.07913   0.10614   0.10892   0.11821   0.16505
   0.18497   0.18669   0.19259   0.21226   0.22835   0.23886   0.27078   0.27298
   0.42934   0.43603   0.52059   0.57090   0.70108   0.70284   0.71920   0.83268
   0.85175   0.89920   0.95805   1.07720   1.14584   1.21412   1.30676   1.34178
   1.38607   1.41838   1.43032   1.44693   1.47911   1.58832   1.59691   1.67379
 kpt#  19, nband= 40, wtk=  0.06250, kpt= -0.1250 -0.3750  0.3750 (reduced coord)
  -0.36009  -0.34298   0.05727   0.07644   0.10270   0.11365   0.13435   0.15116
   0.17095   0.19121   0.21388   0.22181   0.23573   0.23898   0.24951   0.26203
   0.41537   0.42979   0.55083   0.61182   0.67307   0.71861   0.73776   0.76651
   0.85271   0.89546   0.96333   1.08190   1.16079   1.28165   1.30356   1.33769
   1.40176   1.41398   1.43282   1.46014   1.47529   1.48652   1.52878   1.57497
 kpt#  20, nband= 40, wtk=  0.03125, kpt= -0.1250 -0.1250  0.3750 (reduced coord)
  -0.37406  -0.36768   0.07591   0.10037   0.11393   0.12103   0.14027   0.15322
   0.18513   0.19366   0.21199   0.21573   0.22656   0.24703   0.26120   0.28005
   0.41227   0.42648   0.49434   0.51731   0.74312   0.77005   0.82711   0.83383
   0.88880   0.92350   1.01469   1.04482   1.11503   1.16975   1.17872   1.22524
   1.36316   1.38292   1.39927   1.42300   1.43966   1.46939   1.47250   1.52420
 Total charge density [el/Bohr^3]
,     Maximum=    1.6140E+00  at reduced coord.    0.0000    0.0000    0.5000
,Next maximum=    1.6140E+00  at reduced coord.    0.0000    0.0000    0.0000
,     Minimum=    1.1700E-02  at reduced coord.    0.2667    0.2333    0.1167
,Next minimum=    1.1700E-02  at reduced coord.    0.2333    0.2667    0.1167
 Spin up density      [el/Bohr^3]
,     Maximum=    9.9797E-01  at reduced coord.    0.0000    0.0000    0.0000
,Next maximum=    9.6324E-01  at reduced coord.    0.0333    0.9667    0.0000
,     Minimum=    5.8185E-03  at reduced coord.    0.2667    0.2333    0.1167
,Next minimum=    5.8185E-03  at reduced coord.    0.2333    0.2667    0.1167
 Spin down density    [el/Bohr^3]
,     Maximum=    9.9797E-01  at reduced coord.    0.0000    0.0000    0.5000
,Next maximum=    9.6324E-01  at reduced coord.    0.0333    0.9667    0.5000
,     Minimum=    5.8185E-03  at reduced coord.    0.7333    0.7333    0.3833
,Next minimum=    5.8185E-03  at reduced coord.    0.7667    0.7333    0.3833
 Magnetization (spin up - spin down) [el/Bohr^3]
,     Maximum=    3.8189E-01  at reduced coord.    0.0000    0.0000    0.0000
,Next maximum=    3.6844E-01  at reduced coord.    0.0333    0.9667    0.0000
,     Minimum=   -3.8189E-01  at reduced coord.    0.0000    0.0000    0.5000
,Next minimum=   -3.6844E-01  at reduced coord.    0.0333    0.0000    0.5000
 Relative magnetization (=zeta, between -1 and 1)
,     Maximum=    5.3874E-01  at reduced coord.    0.2000    0.8000    0.9167
,Next maximum=    5.3874E-01  at reduced coord.    0.1667    0.8000    0.9167
,     Minimum=   -5.3874E-01  at reduced coord.    0.2000    0.1667    0.4167
,Next minimum=   -5.3874E-01  at reduced coord.    0.8000    0.1667    0.4167

--------------------------------------------------------------------------------
 Components of total free energy (in Hartree) :

    Kinetic energy  =  2.33359939167572E+01
    Hartree energy  =  1.99582383983587E+01
    XC energy       = -1.89012788992083E+01
    Ewald energy    = -9.52410591238850E+01
    PspCore energy  =  3.88968900772322E+00
    Loc. psp. energy= -8.08339102768029E+01
    Spherical terms =  3.54494893068350E+01
    >>>>>>>>> Etotal= -1.12342837670222E+02

 "Double-counting" decomposition of free energy:
    Band energy     =  3.44497192268312E+00
    Ewald energy    = -9.52410591238850E+01
    PspCore energy  =  3.88968900772322E+00
    Dble-C XC-energy= -1.44423449862898E+01
    Spherical terms = -9.99276205111940E+00
    >>>> Etotal (DC)= -1.12341505230888E+02

  >Total energy in eV           = -3.05700407976608E+03
   >Total DC energy in eV        = -3.05696782224789E+03
--------------------------------------------------------------------------------

 Cartesian components of stress tensor (hartree/bohr^3)
  sigma(1 1)=  7.37382654E-04  sigma(3 2)= -1.89621967E-07
  sigma(2 2)=  7.37382654E-04  sigma(3 1)= -1.89621967E-07
  sigma(3 3)=  7.37382654E-04  sigma(2 1)=  1.89621967E-07

-Cartesian components of stress tensor (GPa)         [Pressure= -2.1695E+01 GPa]
- sigma(1 1)=  2.16945430E+01  sigma(3 2)= -5.57886995E-03
- sigma(2 2)=  2.16945430E+01  sigma(3 1)= -5.57886995E-03
- sigma(3 3)=  2.16945430E+01  sigma(2 1)=  5.57886995E-03

== END DATASET(S) ==============================================================
================================================================================
  
 -outvars: echo values of variables after computation  --------
     acell    7.9200000000E+00  7.9200000000E+00  7.9200000000E+00 Bohr
       amu    5.86900000E+01  1.59994000E+01
      ecut    1.50000000E+01 Hartree
    etotal   -1.1234150523E+02
     fcart   -1.6600608275E-32 -1.6600608275E-32  1.6600608275E-32
              4.9801824825E-32  4.9801824825E-32 -4.9801824825E-32
             -1.6600608275E-32 -1.6600608275E-32  1.6600608275E-32
             -1.6600608275E-32 -1.6600608275E-32  1.6600608275E-32
       ixc         7
       kpt    1.25000000E-01  1.25000000E-01  1.25000000E-01
              3.75000000E-01  1.25000000E-01  1.25000000E-01
             -3.75000000E-01  1.25000000E-01  1.25000000E-01
             -1.25000000E-01  1.25000000E-01  1.25000000E-01
              3.75000000E-01  3.75000000E-01  1.25000000E-01
             -3.75000000E-01  3.75000000E-01  1.25000000E-01
             -1.25000000E-01  3.75000000E-01  1.25000000E-01
             -3.75000000E-01 -3.75000000E-01  1.25000000E-01
             -1.25000000E-01 -3.75000000E-01  1.25000000E-01
             -1.25000000E-01 -1.25000000E-01  1.25000000E-01
              1.25000000E-01  1.25000000E-01  3.75000000E-01
              3.75000000E-01  1.25000000E-01  3.75000000E-01
             -3.75000000E-01  1.25000000E-01  3.75000000E-01
             -1.25000000E-01  1.25000000E-01  3.75000000E-01
              3.75000000E-01  3.75000000E-01  3.75000000E-01
             -3.75000000E-01  3.75000000E-01  3.75000000E-01
             -1.25000000E-01  3.75000000E-01  3.75000000E-01
             -3.75000000E-01 -3.75000000E-01  3.75000000E-01
             -1.25000000E-01 -3.75000000E-01  3.75000000E-01
             -1.25000000E-01 -1.25000000E-01  3.75000000E-01
   kptrlen    2.24011428E+01
    kptopt         1
  kptrlatt    4  0  0   0  4  0   0  0  4
P    mkmem        20
     natom         4
     nband        40
     ngfft        20      20      40
   ngfftdg        30      30      60
      nkpt        20
    nspden         2
     nstep        50
      nsym        24
    ntypat         2
       occ    2.000000  2.000000  2.000000  2.000000  2.000000  2.000000
              2.000000  2.000000  2.000000  2.000000  2.000000  2.000000
              2.000000  2.000000  2.000000  2.000000  0.000000  0.000000
              0.000000  0.000000  0.000000  0.000000  0.000000  0.000000
              0.000000  0.000000  0.000000  0.000000  0.000000  0.000000
              0.000000  0.000000  0.000000  0.000000  0.000000  0.000000
              0.000000  0.000000  0.000000  0.000000
 pawecutdg    3.00000000E+01 Hartree
 usedmatpu         5
   usepawu         2
     jpawu    2.93994603E-02  0.00000000E+00
     lpawu         2      -1
     upawu    2.93994603E-01  0.00000000E+00
  dmatpawu    9.00360000E-01  0.00000000E+00 -3.00000000E-05
              0.00000000E+00  0.00000000E+00  0.00000000E+00
              9.00360000E-01 -1.00000000E-05  0.00000000E+00
              2.00000000E-05 -3.00000000E-05 -1.00000000E-05
              9.13090000E-01 -1.00000000E-05  0.00000000E+00
              0.00000000E+00  0.00000000E+00 -1.00000000E-05
              9.00360000E-01 -2.00000000E-05  0.00000000E+00
              2.00000000E-05  0.00000000E+00 -2.00000000E-05
              9.13090000E-01  8.96770000E-01 -1.00000000E-05
              1.10000000E-04 -1.00000000E-05  0.00000000E+00
             -1.00000000E-05  8.96770000E-01  6.00000000E-05
              1.00000000E-05 -1.00000000E-04  1.10000000E-04
              6.00000000E-05  1.15800000E-01  6.00000000E-05
              0.00000000E+00 -1.00000000E-05  1.00000000E-05
              6.00000000E-05  8.96770000E-01  1.00000000E-04
              0.00000000E+00 -1.00000000E-04  0.00000000E+00
              1.00000000E-04  1.15800000E-01
 prtdensph         1
    ratsph    2.31080032E+00 Bohr
     rprim    0.0000000000E+00  5.0000000000E-01  5.0000000000E-01
              5.0000000000E-01  0.0000000000E+00  5.0000000000E-01
              1.0000000000E+00  1.0000000000E+00  0.0000000000E+00
    shiftk    5.00000000E-01  5.00000000E-01  5.00000000E-01
   spgroup       166
    spinat    0.0000000000E+00  0.0000000000E+00  1.0000000000E+00
              0.0000000000E+00  0.0000000000E+00 -1.0000000000E+00
              0.0000000000E+00  0.0000000000E+00  0.0000000000E+00
              0.0000000000E+00  0.0000000000E+00  0.0000000000E+00
    strten    7.3738265447E-04  7.3738265447E-04  7.3738265447E-04
             -1.8962196728E-07 -1.8962196728E-07  1.8962196727E-07
    symafm    1 -1  1  -1  1 -1   1 -1  1      -1  1 -1   1 -1  1  -1  1 -1
              1 -1  1  -1  1 -1
    symrel    1  0  0   0  1  0   0  0  1       1  0  0   0  1  0   0  0  1
             -1  0  0   0 -1  0   0  0 -1      -1  0  0   0 -1  0   0  0 -1
              0  1  0   1  0  0   0  0  1       0  1  0   1  0  0   0  0  1
              0 -1  0  -1  0  0   0  0 -1       0 -1  0  -1  0  0   0  0 -1
              0 -1  0   1 -1  0   0 -2  1       0 -1  0   1 -1  0   0 -2  1
              0  1  0  -1  1  0   0  2 -1       0  1  0  -1  1  0   0  2 -1
              1 -1  0   0 -1  0   0 -2  1       1 -1  0   0 -1  0   0 -2  1
             -1  1  0   0  1  0   0  2 -1      -1  1  0   0  1  0   0  2 -1
             -1  1  0  -1  0  0  -2  0  1      -1  1  0  -1  0  0  -2  0  1
              1 -1  0   1  0  0   2  0 -1       1 -1  0   1  0  0   2  0 -1
             -1  0  0  -1  1  0  -2  0  1      -1  0  0  -1  1  0  -2  0  1
              1  0  0   1 -1  0   2  0 -1       1  0  0   1 -1  0   2  0 -1
     tnons    0.0000000  0.0000000  0.0000000     0.0000000  0.0000000  0.5000000
              0.0000000  0.0000000  0.0000000     0.0000000  0.0000000  0.5000000
              0.0000000  0.0000000  0.0000000     0.0000000  0.0000000  0.5000000
              0.0000000  0.0000000  0.0000000     0.0000000  0.0000000  0.5000000
              0.0000000  0.0000000  0.0000000     0.0000000  0.0000000  0.5000000
              0.0000000  0.0000000  0.0000000     0.0000000  0.0000000  0.5000000
              0.0000000  0.0000000  0.0000000     0.0000000  0.0000000  0.5000000
              0.0000000  0.0000000  0.0000000     0.0000000  0.0000000  0.5000000
              0.0000000  0.0000000  0.0000000     0.0000000  0.0000000  0.5000000
              0.0000000  0.0000000  0.0000000     0.0000000  0.0000000  0.5000000
              0.0000000  0.0000000  0.0000000     0.0000000  0.0000000  0.5000000
              0.0000000  0.0000000  0.0000000     0.0000000  0.0000000  0.5000000
    toldfe    1.00000000E-05 Hartree
     typat    1  1  2  2
    useylm         1
       wtk      0.03125    0.06250    0.06250    0.06250    0.03125    0.06250
                0.06250    0.03125    0.06250    0.03125    0.03125    0.06250
                0.06250    0.06250    0.03125    0.06250    0.06250    0.03125
                0.06250    0.03125
    xangst    0.0000000000E+00  0.0000000000E+00  0.0000000000E+00
              2.0955417460E+00  2.0955417460E+00  0.0000000000E+00
              2.0955417460E+00  2.0955417460E+00  2.0955417460E+00
              4.1910834920E+00  4.1910834920E+00  2.0955417460E+00
     xcart    0.0000000000E+00  0.0000000000E+00  0.0000000000E+00
              3.9600000000E+00  3.9600000000E+00  0.0000000000E+00
              3.9600000000E+00  3.9600000000E+00  3.9600000000E+00
              7.9200000000E+00  7.9200000000E+00  3.9600000000E+00
      xred    0.0000000000E+00  0.0000000000E+00  0.0000000000E+00
              0.0000000000E+00  0.0000000000E+00  5.0000000000E-01
              5.0000000000E-01  5.0000000000E-01  2.5000000000E-01
              5.0000000000E-01  5.0000000000E-01  7.5000000000E-01
     znucl     28.00000    8.00000

================================================================================

- Total cpu        time (s,m,h):         64.4        1.07      0.018
- Total wall clock time (s,m,h):         64.4        1.07      0.018

- For major independent code sections, cpu and wall times (sec),
- as well as % of the total time and number of calls 

- routine                 cpu     %       wall     %      number of calls 
-                                                          (-1=no count)
- fourwf(pot)           26.297  40.8     26.309  40.8          61581
- nonlop(apply)         16.239  25.2     16.233  25.2          61581
- projbd                 5.778   9.0      5.780   9.0          47981
- vtowfk(ssdiag)         5.353   8.3      5.361   8.3             -1
- fourwf(den)            1.195   1.9      1.232   1.9           4800
- pspini                 1.184   1.8      1.184   1.8              1
- nonlop(forces)         1.076   1.7      1.033   1.6           4800
- getghc-other           1.016   1.6      1.028   1.6             -1
- xc:pot/=fourdp         0.691   1.1      0.691   1.1            152
- pawinit                0.494   0.8      0.494   0.8              2
- pawdenpot              0.389   0.6      0.385   0.6             15
- timing timab           0.365   0.6      0.365   0.6             11
- 54   others            2.071   3.2      2.080   3.2

- subtotal              62.148  96.5     62.175  96.5

================================================================================

 Calculation completed.
.Delivered    1 WARNINGs and   0 COMMENTs to log file.
+Overall time at end (sec) : cpu=         64.4  wall=         64.4
