
.Version 5.6.3  of ABINIT 
.(sequential version, prepared for a x86_64_linux_gcc4.3 computer) 

.Copyright (C) 1998-2008 ABINIT group . 
 ABINIT comes with ABSOLUTELY NO WARRANTY.
 It is free software, and you are welcome to redistribute it
 under certain conditions (GNU General Public License,
 see ~abinit/COPYING or http://www.gnu.org/copyleft/gpl.txt).

 ABINIT is a project of the Universite Catholique de Louvain,
 Corning Inc. and other collaborators, see ~abinit/doc/developers/contributors.txt .
 Please read ~abinit/doc/users/acknowledgments.html for suggested
 acknowledgments of the ABINIT effort.
 For more information, see http://www.abinit.org .

.Starting date : Thu  6 Nov 2008.
  
- input  file    -> /home/gonze/ABINIT/ABINITv5.6.3/test_gcc43/5.6.3-private/tests/tutorial/Input/tparal_3.in
- output file    -> tparal_3.out
- root for input  files -> tparal_3i
- root for output files -> tparal_3o


 Symmetries : the space group has not been recognized
================================================================================
 Values of the parameters that define the memory need of the present run
   intxc =         0  ionmov =         0    iscf =         5 xclevel =         1
  lmnmax =         6   lnmax =         6   mband =        12  mffmem =         1
P  mgfft =        90   mkmem =         1 mpssoang=         3     mpw =     13115
  mqgrid =      3001   natom =         2    nfft =    729000    nkpt =         1
  nloalg =         4  nspden =         1 nspinor =         1  nsppol =         1
    nsym =        12  n1xccc =         0  ntypat =         1  occopt =         1
================================================================================
P This job should need less than                     169.822 Mbytes of memory.
  Rough estimation (10% accuracy) of disk space for files :
  WF disk file :      2.403 Mbytes ; DEN or POT disk file :      5.564 Mbytes.
================================================================================

 -outvars: echo values of preprocessed input variables --------
     acell    1.8000000000E+01  1.8000000000E+01  1.8000000000E+01 Bohr
       amu    1.96966540E+02
    diemac    1.00000000E+00
    diemix    5.00000000E-01
      ecut    2.60000000E+01 Hartree
      iscf         5
    istwfk      2
P    mkmem         1
     natom         2
     nband        12
  nbdblock         2
     ngfft        90      90      90
      nkpt         1
     nstep         6
      nsym        12
    ntypat         1
       occ    2.000000  2.000000  2.000000  2.000000  2.000000  2.000000
              2.000000  2.000000  2.000000  2.000000  2.000000  0.000000
     rprim    5.7735026919E-01  0.0000000000E+00  8.1649658093E-01
             -2.8867513459E-01  5.0000000000E-01  8.1649658093E-01
             -2.8867513459E-01 -5.0000000000E-01  8.1649658093E-01
    symrel    1  0  0   0  1  0   0  0  1      -1  0  0   0 -1  0   0  0 -1
              1  0  0   0  0  1   0  1  0      -1  0  0   0  0 -1   0 -1  0
              0  1  0   0  0  1   1  0  0       0 -1  0   0  0 -1  -1  0  0
              0  1  0   1  0  0   0  0  1       0 -1  0  -1  0  0   0  0 -1
              0  0  1   1  0  0   0  1  0       0  0 -1  -1  0  0   0 -1  0
              0  0  1   0  1  0   1  0  0       0  0 -1   0 -1  0  -1  0  0
    timopt         2
    tolvrs    1.00000000E-07
     typat    1  1
  wfoptalg         1
    xangst    0.0000000000E+00  0.0000000000E+00 -1.3550000000E+00
              0.0000000000E+00  0.0000000000E+00  1.3550000000E+00
     xcart    0.0000000000E+00  0.0000000000E+00 -2.5605789101E+00
              0.0000000000E+00  0.0000000000E+00  2.5605789101E+00
      xred   -5.8075109035E-02 -5.8075109035E-02 -5.8075109035E-02
              5.8075109035E-02  5.8075109035E-02  5.8075109035E-02
     znucl     79.00000

================================================================================

 chkinp: Checking input parameters for consistency.

================================================================================
== DATASET  1 ==================================================================

 Real(R)+Recip(G) space primitive vectors, cartesian coordinates (Bohr,Bohr^-1):
 R(1)= 10.3923048  0.0000000 14.6969385  G(1)=  0.0641500  0.0000000  0.0226805
 R(2)= -5.1961524  9.0000000 14.6969385  G(2)= -0.0320750  0.0555556  0.0226805
 R(3)= -5.1961524 -9.0000000 14.6969385  G(3)= -0.0320750 -0.0555556  0.0226805
 Unit cell volume ucvol=  4.1238467E+03 bohr^3
 Angles (23,13,12)=  6.00000000E+01  6.00000000E+01  6.00000000E+01 degrees

 getcut: wavevector=  0.0000  0.0000  0.0000  ngfft=  90  90  90
         ecut(hartree)=     26.000   => boxcut(ratio)=   2.17857

--- Pseudopotential description ------------------------------------------------
- pspini: atom type   1  psp file is /home/gonze/ABINIT/ABINITv5.6.3/test_gcc43/5.6.3-private/tests/Psps_for_tests/HGH/79au.11.hgh
- pspatm: opening atomic psp file    /home/gonze/ABINIT/ABINITv5.6.3/test_gcc43/5.6.3-private/tests/Psps_for_tests/HGH/79au.11.hgh
 Hartwigsen-Goedecker-Hutter psp for Au,  from PRB58, 3641 (1998)
  79.00000  11.00000     10605                znucl, zion, pspdat
    3    1    2    0      2001   0.00000      pspcod,pspxc,lmax,lloc,mmax,r2well
 rloc=   0.5900000
 cc1 =  11.6044280; cc2 =   0.0000000; cc3 =   0.0000000; cc4 =   0.0000000
 rrs =   0.5211800; h11s=   2.5386140; h22s=   2.7011130; h33s=   0.0000000
 rrp =   0.6306130; h11p=   0.3948530; h22p=   2.0578310; h33p=   0.0000000
                    k11p=  -0.9600550; k22p=   1.2965710; k33p=   0.0000000
 rrd =   0.4407060; h11d=  -4.7190700; h22d=  -1.6504290; h33d=   0.0000000
                    k11d=   0.1484840; k22d=  -0.1694930; k33d=   0.0000000
-  Local part computed in reciprocal space.

 pspatm : COMMENT -
  the projectors are not normalized,
  so that the KB energies are not consistent with
  definition in PRB44, 8503 (1991).
  However, this does not influence the results obtained hereafter.
 pspatm: epsatm=   61.59508188
         --- l  ekb(1:nproj) -->
             0    0.788183    1.841339
             1    0.016399    1.717768
             2   -0.223557   -0.068060
 pspatm: atomic psp has been read  and splines computed

   2.71018360E+03                                ecore*ucvol(ha*bohr**3)
--------------------------------------------------------------------------------

P newkpt: treating     12 bands with npw=   13115 for ikpt=   1

 setup2: Arith. and geom. avg. npw (full set) are   26229.000   26229.000

================================================================================

     iter   Etot(hartree)      deltaE(h)  residm     vres2    diffor    maxfor
 ETOT  1  -58.578121741433    -5.858E+01 2.661E-01 1.492E+04 2.947E-01 2.947E-01
 ETOT  2  -64.069294626410    -5.491E+00 3.158E-01 3.040E+04 1.075E+00 7.801E-01
 ETOT  3  -65.106947561485    -1.038E+00 1.790E-02 1.528E+04 2.156E-01 5.644E-01
 ETOT  4  -65.330060982708    -2.231E-01 2.740E-05 1.134E+04 4.165E-02 5.228E-01
 ETOT  5  -65.414051957210    -8.399E-02 3.216E-06 9.981E+03 1.875E-02 5.040E-01
 ETOT  6  -65.449980875725    -3.593E-02 6.430E-07 9.418E+03 8.544E-03 4.955E-01

 Cartesian components of stress tensor (hartree/bohr^3)
  sigma(1 1)= -1.57648396E-03  sigma(3 2)=  0.00000000E+00
  sigma(2 2)= -1.57648396E-03  sigma(3 1)=  0.00000000E+00
  sigma(3 3)= -1.44858867E-03  sigma(2 1)=  0.00000000E+00


 scprqt:  WARNING -
  nstep=    6 was not enough SCF cycles to converge;
  potential residual=  9.418E+03 exceeds tolvrs=  1.000E-07

================================================================================

 ----iterations are completed or convergence reached----

 Mean square residual over all n,k,spin=   2.5145E-07; max=  6.4295E-07
   0.0000  0.0000  0.0000    1  6.42954E-07 kpt; spin; max resid(k); each band:
 2.96E-07 7.68E-08 7.51E-08 1.14E-07 1.15E-07 7.96E-08 8.68E-08 1.99E-07
 2.19E-07 6.09E-07 5.04E-07 6.43E-07
 reduced coordinates (array xred) for    2 atoms
      -0.058075109035     -0.058075109035     -0.058075109035
       0.058075109035      0.058075109035      0.058075109035
 rms dE/dt=  7.2820E+00; max dE/dt=  7.2820E+00; dE/dt below (all hartree)
    1       7.281955839576      7.281955839576      7.281955839576
    2      -7.281955839576     -7.281955839576     -7.281955839576

 cartesian coordinates (angstrom) at end:
    1      0.00000000000000     0.00000000000000    -1.35500000000000
    2      0.00000000000000     0.00000000000000     1.35500000000000

 cartesian forces (hartree/bohr) at end:
    1      0.00000000000000     0.00000000000000    -0.49547433712336
    2     -0.00000000000000    -0.00000000000000     0.49547433712336
 frms,max,avg= 2.8606224E-01 4.9547434E-01   0.000E+00  0.000E+00  0.000E+00 h/b

 cartesian forces (eV/Angstrom) at end:
    1      0.00000000000000     0.00000000000001   -25.47831267368300
    2     -0.00000000000000    -0.00000000000001    25.47831267368300
 frms,max,avg= 1.4709911E+01 2.5478313E+01   0.000E+00  0.000E+00  0.000E+00 e/A
 length scales= 18.000000000000 18.000000000000 18.000000000000 bohr
              =  9.525189754620  9.525189754620  9.525189754620 angstroms
 prteigrs : about to open file tparal_3o_EIG
 Fermi (or HOMO) energy (hartree) =  -0.33416   Average Vxc (hartree)=  -0.05263
 Eigenvalues (hartree) for nkpt=   1  k points:
 kpt#   1, nband= 12, wtk=  1.00000, kpt=  0.0000  0.0000  0.0000 (reduced coord)
  -0.65821  -0.63936  -0.63936  -0.62799  -0.62799  -0.62505  -0.62505  -0.61782
  -0.61782  -0.60890  -0.33416  -0.28775
 Total charge density [el/Bohr^3]
,     Maximum=    6.2154E-01  at reduced coord.    0.0000    0.9000    0.9444
,Next maximum=    6.2154E-01  at reduced coord.    0.9000    0.0000    0.9444
,     Minimum=    2.3345E-09  at reduced coord.    0.4889    0.4889    0.4889
,Next minimum=    2.3345E-09  at reduced coord.    0.5111    0.5111    0.5111

--------------------------------------------------------------------------------
 Components of total free energy (in Hartree) :

    Kinetic energy  =  5.79564046374157E+01
    Hartree energy  =  5.46897464833704E+01
    XC energy       = -1.14186624962023E+01
    Ewald energy    = -1.83231137451799E+01
    PspCore energy  =  6.57197943648674E-01
    Loc. psp. energy= -1.04404942155256E+02
    NL   psp  energy= -4.46066115435218E+01
    >>>>>>>>> Etotal= -6.54499808757249E+01

 Other information on the energy :
    Total energy(eV)= -1.78098455323901E+03 ; Band energy (Ha)=  -1.3243412640E+01
--------------------------------------------------------------------------------

 Cartesian components of stress tensor (hartree/bohr^3)
  sigma(1 1)= -1.57648396E-03  sigma(3 2)=  0.00000000E+00
  sigma(2 2)= -1.57648396E-03  sigma(3 1)=  0.00000000E+00
  sigma(3 3)= -1.44858867E-03  sigma(2 1)=  0.00000000E+00

-Cartesian components of stress tensor (GPa)         [Pressure=  4.5127E+01 GPa]
- sigma(1 1)= -4.63817517E+01  sigma(3 2)=  0.00000000E+00
- sigma(2 2)= -4.63817517E+01  sigma(3 1)=  0.00000000E+00
- sigma(3 3)= -4.26189431E+01  sigma(2 1)=  0.00000000E+00

== END DATASET(S) ==============================================================
================================================================================
  
 -outvars: echo values of variables after computation  --------
     acell    1.8000000000E+01  1.8000000000E+01  1.8000000000E+01 Bohr
       amu    1.96966540E+02
    diemac    1.00000000E+00
    diemix    5.00000000E-01
      ecut    2.60000000E+01 Hartree
    etotal   -6.5449980876E+01
     fcart    5.5511151231E-17  1.1102230246E-16 -4.9547433712E-01
             -5.5511151231E-17 -1.1102230246E-16  4.9547433712E-01
      iscf         5
    istwfk      2
P    mkmem         1
     natom         2
     nband        12
  nbdblock         2
     ngfft        90      90      90
      nkpt         1
     nstep         6
      nsym        12
    ntypat         1
       occ    2.000000  2.000000  2.000000  2.000000  2.000000  2.000000
              2.000000  2.000000  2.000000  2.000000  2.000000  0.000000
     rprim    5.7735026919E-01  0.0000000000E+00  8.1649658093E-01
             -2.8867513459E-01  5.0000000000E-01  8.1649658093E-01
             -2.8867513459E-01 -5.0000000000E-01  8.1649658093E-01
    strten   -1.5764839619E-03 -1.5764839619E-03 -1.4485886749E-03
              0.0000000000E+00  0.0000000000E+00  0.0000000000E+00
    symrel    1  0  0   0  1  0   0  0  1      -1  0  0   0 -1  0   0  0 -1
              1  0  0   0  0  1   0  1  0      -1  0  0   0  0 -1   0 -1  0
              0  1  0   0  0  1   1  0  0       0 -1  0   0  0 -1  -1  0  0
              0  1  0   1  0  0   0  0  1       0 -1  0  -1  0  0   0  0 -1
              0  0  1   1  0  0   0  1  0       0  0 -1  -1  0  0   0 -1  0
              0  0  1   0  1  0   1  0  0       0  0 -1   0 -1  0  -1  0  0
    timopt         2
    tolvrs    1.00000000E-07
     typat    1  1
  wfoptalg         1
    xangst    0.0000000000E+00  0.0000000000E+00 -1.3550000000E+00
              0.0000000000E+00  0.0000000000E+00  1.3550000000E+00
     xcart    0.0000000000E+00  0.0000000000E+00 -2.5605789101E+00
              0.0000000000E+00  0.0000000000E+00  2.5605789101E+00
      xred   -5.8075109035E-02 -5.8075109035E-02 -5.8075109035E-02
              5.8075109035E-02  5.8075109035E-02  5.8075109035E-02
     znucl     79.00000

================================================================================

- Total cpu        time (s,m,h):         27.5        0.46      0.008
- Total wall clock time (s,m,h):         27.5        0.46      0.008

- For major independent code sections, cpu and wall times (sec),
- as well as % of the total time and number of calls 

- routine                 cpu     %       wall     %      number of calls 
-                                                          (-1=no count)
- fourwf(pot)           16.577  60.3     16.561  60.2            480
- nonlop(apply)          1.922   7.0      1.919   7.0            480
- fourwf(den)            1.298   4.7      1.307   4.8             66
- projbd                 1.176   4.3      1.140   4.1            768
- symrhg(no FFT)         1.115   4.1      1.117   4.1              6
- fourdp                 0.862   3.1      0.858   3.1             21
- forces                 0.616   2.2      0.616   2.2              6
- xc:pot/=fourdp         0.577   2.1      0.575   2.1              7
- nonlop(forces)         0.434   1.6      0.425   1.5             66
- vtowfk(ssdiag)         0.234   0.9      0.237   0.9             -1
- setsym                 0.151   0.5      0.151   0.5              1
- 59   others            0.657   2.4      0.689   2.5

- subtotal              25.619  93.2     25.595  93.1

================================================================================

 Calculation completed.
.Delivered    2 WARNINGs and   2 COMMENTs to log file.
+Overall time at end (sec) : cpu=         27.5  wall=         27.5
