
.Version 5.6.3  of ABINIT 
.(sequential version, prepared for a x86_64_linux_gcc4.3 computer) 

.Copyright (C) 1998-2008 ABINIT group . 
 ABINIT comes with ABSOLUTELY NO WARRANTY.
 It is free software, and you are welcome to redistribute it
 under certain conditions (GNU General Public License,
 see ~abinit/COPYING or http://www.gnu.org/copyleft/gpl.txt).

 ABINIT is a project of the Universite Catholique de Louvain,
 Corning Inc. and other collaborators, see ~abinit/doc/developers/contributors.txt .
 Please read ~abinit/doc/users/acknowledgments.html for suggested
 acknowledgments of the ABINIT effort.
 For more information, see http://www.abinit.org .

.Starting date : Thu  6 Nov 2008.
  
- input  file    -> /home/gonze/ABINIT/ABINITv5.6.3/test_gcc43/5.6.3-private/tests/tutorial/Input/tspin_2.in
- output file    -> tspin_2.out
- root for input  files -> tspin_2i
- root for output files -> tspin_2o


 Magnetic group, Shubnikov type IV
 Fedorov space group Pm m m (# 47)
 Magnetic Bravais lattice tP_C (primitive tetrag., C-magnetic, #24)
================================================================================
 Values of the parameters that define the memory need of the present run
   intxc =         0  ionmov =         0    iscf =         5 xclevel =         1
  lmnmax =         2   lnmax =         2   mband =        16  mffmem =         1
P  mgfft =        27   mkmem =        18 mpssoang=         3     mpw =       530
  mqgrid =      3001   natom =         2    nfft =      8748    nkpt =        18
  nloalg =         4  nspden =         2 nspinor =         1  nsppol =         1
    nsym =        16  n1xccc =      2501  ntypat =         1  occopt =         3
================================================================================
P This job should need less than                       7.095 Mbytes of memory.
  Rough estimation (10% accuracy) of disk space for files :
  WF disk file :      2.331 Mbytes ; DEN or POT disk file :      0.069 Mbytes.
================================================================================

 -outvars: echo values of preprocessed input variables --------
     acell    6.6000000000E+00  6.6000000000E+00  6.6000000000E+00 Bohr
       amu    5.58470000E+01
      ecut    1.80000000E+01 Hartree
      iscf         5
       kpt    8.33333333E-02  8.33333333E-02  1.25000000E-01
              2.50000000E-01  8.33333333E-02  1.25000000E-01
              4.16666667E-01  8.33333333E-02  1.25000000E-01
              8.33333333E-02  2.50000000E-01  1.25000000E-01
              2.50000000E-01  2.50000000E-01  1.25000000E-01
              4.16666667E-01  2.50000000E-01  1.25000000E-01
              8.33333333E-02  4.16666667E-01  1.25000000E-01
              2.50000000E-01  4.16666667E-01  1.25000000E-01
              4.16666667E-01  4.16666667E-01  1.25000000E-01
              8.33333333E-02  8.33333333E-02  3.75000000E-01
              2.50000000E-01  8.33333333E-02  3.75000000E-01
              4.16666667E-01  8.33333333E-02  3.75000000E-01
              8.33333333E-02  2.50000000E-01  3.75000000E-01
              2.50000000E-01  2.50000000E-01  3.75000000E-01
              4.16666667E-01  2.50000000E-01  3.75000000E-01
              8.33333333E-02  4.16666667E-01  3.75000000E-01
              2.50000000E-01  4.16666667E-01  3.75000000E-01
              4.16666667E-01  4.16666667E-01  3.75000000E-01
   kptrlen    2.64000000E+01
    kptopt         1
  kptrlatt    6  0  0   0  6  0   0  0  4
P    mkmem        18
     natom         2
     nband        16
     ngfft        18      18      27
      nkpt        18
    nspden         2
     nstep        70
      nsym        16
    ntypat         1
       occ    2.000000  2.000000  2.000000  2.000000  2.000000  2.000000
              2.000000  2.000000  0.000000  0.000000  0.000000  0.000000
              0.000000  0.000000  0.000000  0.000000
              2.000000  2.000000  2.000000  2.000000  2.000000  2.000000
              2.000000  2.000000  0.000000  0.000000  0.000000  0.000000
              0.000000  0.000000  0.000000  0.000000
              2.000000  2.000000  2.000000  2.000000  2.000000  2.000000
              2.000000  2.000000  0.000000  0.000000  0.000000  0.000000
              0.000000  0.000000  0.000000  0.000000
              2.000000  2.000000  2.000000  2.000000  2.000000  2.000000
              2.000000  2.000000  0.000000  0.000000  0.000000  0.000000
              0.000000  0.000000  0.000000  0.000000
              2.000000  2.000000  2.000000  2.000000  2.000000  2.000000
              2.000000  2.000000  0.000000  0.000000  0.000000  0.000000
              0.000000  0.000000  0.000000  0.000000
              2.000000  2.000000  2.000000  2.000000  2.000000  2.000000
              2.000000  2.000000  0.000000  0.000000  0.000000  0.000000
              0.000000  0.000000  0.000000  0.000000
              2.000000  2.000000  2.000000  2.000000  2.000000  2.000000
              2.000000  2.000000  0.000000  0.000000  0.000000  0.000000
              0.000000  0.000000  0.000000  0.000000
              2.000000  2.000000  2.000000  2.000000  2.000000  2.000000
              2.000000  2.000000  0.000000  0.000000  0.000000  0.000000
              0.000000  0.000000  0.000000  0.000000
              2.000000  2.000000  2.000000  2.000000  2.000000  2.000000
              2.000000  2.000000  0.000000  0.000000  0.000000  0.000000
              0.000000  0.000000  0.000000  0.000000
              2.000000  2.000000  2.000000  2.000000  2.000000  2.000000
              2.000000  2.000000  0.000000  0.000000  0.000000  0.000000
              0.000000  0.000000  0.000000  0.000000
              2.000000  2.000000  2.000000  2.000000  2.000000  2.000000
              2.000000  2.000000  0.000000  0.000000  0.000000  0.000000
              0.000000  0.000000  0.000000  0.000000
              2.000000  2.000000  2.000000  2.000000  2.000000  2.000000
              2.000000  2.000000  0.000000  0.000000  0.000000  0.000000
              0.000000  0.000000  0.000000  0.000000
              2.000000  2.000000  2.000000  2.000000  2.000000  2.000000
              2.000000  2.000000  0.000000  0.000000  0.000000  0.000000
              0.000000  0.000000  0.000000  0.000000
              2.000000  2.000000  2.000000  2.000000  2.000000  2.000000
              2.000000  2.000000  0.000000  0.000000  0.000000  0.000000
              0.000000  0.000000  0.000000  0.000000
              2.000000  2.000000  2.000000  2.000000  2.000000  2.000000
              2.000000  2.000000  0.000000  0.000000  0.000000  0.000000
              0.000000  0.000000  0.000000  0.000000
              2.000000  2.000000  2.000000  2.000000  2.000000  2.000000
              2.000000  2.000000  0.000000  0.000000  0.000000  0.000000
              0.000000  0.000000  0.000000  0.000000
              2.000000  2.000000  2.000000  2.000000  2.000000  2.000000
              2.000000  2.000000  0.000000  0.000000  0.000000  0.000000
              0.000000  0.000000  0.000000  0.000000
              2.000000  2.000000  2.000000  2.000000  2.000000  2.000000
              2.000000  2.000000  0.000000  0.000000  0.000000  0.000000
              0.000000  0.000000  0.000000  0.000000
    occopt         3
    prtdos         1
     rprim    5.0000000000E-01 -5.0000000000E-01  0.0000000000E+00
              5.0000000000E-01  5.0000000000E-01  0.0000000000E+00
              0.0000000000E+00  0.0000000000E+00  1.0000000000E+00
    shiftk    5.00000000E-01  5.00000000E-01  5.00000000E-01
   spgroup        47
    spinat    0.0000000000E+00  0.0000000000E+00  4.0000000000E+00
              0.0000000000E+00  0.0000000000E+00 -4.0000000000E+00
    symafm    1 -1  1  -1  1 -1   1 -1  1      -1  1 -1   1 -1  1  -1
    symrel    1  0  0   0  1  0   0  0  1       1  0  0   0  1  0   0  0  1
             -1  0  0   0 -1  0   0  0 -1      -1  0  0   0 -1  0   0  0 -1
             -1  0  0   0  1  0   0  0 -1      -1  0  0   0  1  0   0  0 -1
              1  0  0   0 -1  0   0  0  1       1  0  0   0 -1  0   0  0  1
             -1  0  0   0 -1  0   0  0  1      -1  0  0   0 -1  0   0  0  1
              1  0  0   0  1  0   0  0 -1       1  0  0   0  1  0   0  0 -1
              1  0  0   0 -1  0   0  0 -1       1  0  0   0 -1  0   0  0 -1
             -1  0  0   0  1  0   0  0  1      -1  0  0   0  1  0   0  0  1
     tnons    0.0000000  0.0000000  0.0000000     0.5000000  0.0000000  0.5000000
              0.0000000  0.0000000  0.0000000     0.5000000  0.0000000  0.5000000
              0.0000000  0.0000000  0.0000000     0.5000000  0.0000000  0.5000000
              0.0000000  0.0000000  0.0000000     0.5000000  0.0000000  0.5000000
              0.0000000  0.0000000  0.0000000     0.5000000  0.0000000  0.5000000
              0.0000000  0.0000000  0.0000000     0.5000000  0.0000000  0.5000000
              0.0000000  0.0000000  0.0000000     0.5000000  0.0000000  0.5000000
              0.0000000  0.0000000  0.0000000     0.5000000  0.0000000  0.5000000
    tolwfr    1.00000000E-07
    tsmear    1.00000000E-02 Hartree
     typat    1  1
       wtk      0.05556    0.05556    0.05556    0.05556    0.05556    0.05556
                0.05556    0.05556    0.05556    0.05556    0.05556    0.05556
                0.05556    0.05556    0.05556    0.05556    0.05556    0.05556
    xangst    0.0000000000E+00  0.0000000000E+00  0.0000000000E+00
              8.7314239417E-01 -8.7314239417E-01  1.7462847883E+00
     xcart    0.0000000000E+00  0.0000000000E+00  0.0000000000E+00
              1.6500000000E+00 -1.6500000000E+00  3.3000000000E+00
      xred    0.0000000000E+00  0.0000000000E+00  0.0000000000E+00
              5.0000000000E-01  0.0000000000E+00  5.0000000000E-01
     znucl     26.00000

================================================================================

 chkinp: Checking input parameters for consistency.

================================================================================
== DATASET  1 ==================================================================

 Real(R)+Recip(G) space primitive vectors, cartesian coordinates (Bohr,Bohr^-1):
 R(1)=  3.3000000 -3.3000000  0.0000000  G(1)=  0.1515152 -0.1515152  0.0000000
 R(2)=  3.3000000  3.3000000  0.0000000  G(2)=  0.1515152  0.1515152  0.0000000
 R(3)=  0.0000000  0.0000000  6.6000000  G(3)=  0.0000000  0.0000000  0.1515152
 Unit cell volume ucvol=  1.4374800E+02 bohr^3
 Angles (23,13,12)=  9.00000000E+01  9.00000000E+01  9.00000000E+01 degrees

 getcut: wavevector=  0.0000  0.0000  0.0000  ngfft=  18  18  27
         ecut(hartree)=     18.000   => boxcut(ratio)=   2.01949

--- Pseudopotential description ------------------------------------------------
- pspini: atom type   1  psp file is /home/gonze/ABINIT/ABINITv5.6.3/test_gcc43/5.6.3-private/tests/Psps_for_tests/26fe.pspnc
- pspatm: opening atomic psp file    /home/gonze/ABINIT/ABINITv5.6.3/test_gcc43/5.6.3-private/tests/Psps_for_tests/26fe.pspnc
  Troullier-Martins psp for element  Fe        Thu Oct 27 17:35:05 EDT 1994
  26.00000   8.00000    940714                znucl, zion, pspdat
    1    1    2    0      2001   0.00000      pspcod,pspxc,lmax,lloc,mmax,r2well
    0   4.333  10.868    0   2.2918558        l,e99.0,e99.9,nproj,rcpsp
   0.00000000   0.00000000   0.00000000   0.00000000     rms, ekb1, ekb2, epsatm
    1   1.213   4.197    1   2.8345121        l,e99.0,e99.9,nproj,rcpsp
   0.00000000   0.00000000   0.00000000   0.00000000     rms, ekb1, ekb2, epsatm
    2  18.664  23.972    1   2.2918558        l,e99.0,e99.9,nproj,rcpsp
   0.00000000   0.00000000   0.00000000   0.00000000     rms, ekb1, ekb2, epsatm
    1.56404770202776    2.06158206779471    6.88331421535388   rchrg,fchrg,qchrg
 pspatm: epsatm=   62.03296659
         --- l  ekb(1:nproj) -->
             1    1.561134
             2   -8.115829
 pspatm: atomic psp has been read  and splines computed

   1.98505493E+03                                ecore*ucvol(ha*bohr**3)
--------------------------------------------------------------------------------

P newkpt: treating     16 bands with npw=     530 for ikpt=   1
P newkpt: treating     16 bands with npw=     529 for ikpt=   2
P newkpt: treating     16 bands with npw=     525 for ikpt=   3
P newkpt: treating     16 bands with npw=     529 for ikpt=   4
P newkpt: treating     16 bands with npw=     528 for ikpt=   5
P newkpt: treating     16 bands with npw=     519 for ikpt=   6
P newkpt: treating     16 bands with npw=     525 for ikpt=   7
P newkpt: treating     16 bands with npw=     519 for ikpt=   8
P newkpt: treating     16 bands with npw=     517 for ikpt=   9
P newkpt: treating     16 bands with npw=     529 for ikpt=  10
P newkpt: treating     16 bands with npw=     528 for ikpt=  11
P newkpt: treating     16 bands with npw=     522 for ikpt=  12
P newkpt: treating     16 bands with npw=     528 for ikpt=  13
P newkpt: treating     16 bands with npw=     527 for ikpt=  14
P newkpt: treating     16 bands with npw=     519 for ikpt=  15
P newkpt: treating     16 bands with npw=     522 for ikpt=  16
P newkpt: treating     16 bands with npw=     519 for ikpt=  17
P newkpt: treating     16 bands with npw=     520 for ikpt=  18

 setup2: Arith. and geom. avg. npw (full set) are     524.167     524.148

================================================================================

     iter   Etot(hartree)      deltaE(h)  residm     vres2    diffor    maxfor
 ETOT  1  -47.095666027187    -4.710E+01 2.548E-01 3.590E+03 0.000E+00 0.000E+00
 ETOT  2  -48.105000123353    -1.009E+00 1.063E-02 1.768E+03 2.988E-32 2.988E-32
 ETOT  3  -49.227832889226    -1.123E+00 2.838E-02 3.370E+01 2.988E-32 0.000E+00
 ETOT  4  -49.237153369354    -9.320E-03 3.228E-03 9.875E+00 0.000E+00 0.000E+00
 ETOT  5  -49.240265169800    -3.112E-03 5.645E-04 8.479E+00 1.195E-31 1.195E-31
 ETOT  6  -49.241169614073    -9.044E-04 5.798E-04 4.059E+00 2.390E-31 1.195E-31
 ETOT  7  -49.241962228015    -7.926E-04 5.436E-04 5.730E+00 1.195E-31 0.000E+00
 ETOT  8  -49.244595703164    -2.633E-03 4.858E-04 7.720E-01 0.000E+00 0.000E+00
 ETOT  9  -49.245896373963    -1.301E-03 1.425E-03 3.092E-01 0.000E+00 0.000E+00
 ETOT 10  -49.247947033953    -2.051E-03 7.414E-04 4.313E-02 0.000E+00 0.000E+00
 ETOT 11  -49.248290715434    -3.437E-04 1.515E-03 8.343E-02 0.000E+00 0.000E+00
 ETOT 12  -49.248296420395    -5.705E-06 4.510E-04 3.326E-01 0.000E+00 0.000E+00
 ETOT 13  -49.248474436881    -1.780E-04 7.186E-04 7.157E-02 0.000E+00 0.000E+00
 ETOT 14  -49.248594154255    -1.197E-04 1.711E-04 3.348E-01 0.000E+00 0.000E+00
 ETOT 15  -49.248702866744    -1.087E-04 2.135E-04 4.074E-02 1.195E-31 1.195E-31
 ETOT 16  -49.248869055537    -1.662E-04 6.023E-05 6.167E-02 1.195E-31 0.000E+00
 ETOT 17  -49.248874476651    -5.421E-06 8.524E-05 1.194E-01 0.000E+00 0.000E+00
 ETOT 18  -49.248900155574    -2.568E-05 2.282E-05 8.918E-03 0.000E+00 0.000E+00
 ETOT 19  -49.248919634656    -1.948E-05 4.467E-05 2.026E-02 0.000E+00 0.000E+00
 ETOT 20  -49.248916867650     2.767E-06 1.024E-05 1.335E-02 1.195E-31 1.195E-31
 ETOT 21  -49.248938830194    -2.196E-05 1.879E-05 1.909E-02 1.195E-31 0.000E+00
 ETOT 22  -49.248943283865    -4.454E-06 4.602E-06 1.358E-03 1.195E-31 1.195E-31
 ETOT 23  -49.248945526816    -2.243E-06 8.542E-06 2.674E-03 1.195E-31 0.000E+00
 ETOT 24  -49.248946511049    -9.842E-07 2.128E-06 1.786E-03 1.195E-31 1.195E-31
 ETOT 25  -49.248950148412    -3.637E-06 3.862E-06 4.041E-04 1.195E-31 0.000E+00
 ETOT 26  -49.248952075368    -1.927E-06 1.072E-06 1.948E-03 0.000E+00 0.000E+00
 ETOT 27  -49.248952689553    -6.142E-07 1.861E-06 8.586E-04 1.195E-31 1.195E-31
 ETOT 28  -49.248954580062    -1.891E-06 6.010E-07 3.299E-03 1.195E-31 0.000E+00
 ETOT 29  -49.248955063240    -4.832E-07 9.564E-07 7.398E-04 0.000E+00 0.000E+00
 ETOT 30  -49.248957226452    -2.163E-06 3.786E-07 1.474E-03 0.000E+00 0.000E+00
 ETOT 31  -49.248957419853    -1.934E-07 4.977E-07 3.779E-04 0.000E+00 0.000E+00
 ETOT 32  -49.248958056895    -6.370E-07 2.205E-07 7.284E-04 0.000E+00 0.000E+00
 ETOT 33  -49.248958083414    -2.652E-08 2.868E-07 2.371E-04 0.000E+00 0.000E+00
 ETOT 34  -49.248958542777    -4.594E-07 1.300E-07 4.201E-04 0.000E+00 0.000E+00
 ETOT 35  -49.248958567669    -2.489E-08 1.613E-07 4.918E-05 0.000E+00 0.000E+00
 ETOT 36  -49.248958600697    -3.303E-08 9.675E-08 4.405E-05 0.000E+00 0.000E+00

 At SCF step   36   max residual=  9.67E-08 < tolwfr=  1.00E-07 =>converged.

 Cartesian components of stress tensor (hartree/bohr^3)
  sigma(1 1)=  2.01067737E-02  sigma(3 2)=  0.00000000E+00
  sigma(2 2)=  2.01067737E-02  sigma(3 1)=  0.00000000E+00
  sigma(3 3)=  1.83386112E-02  sigma(2 1)=  7.07138467E-04

================================================================================

 ----iterations are completed or convergence reached----

 Mean square residual over all n,k,spin=   4.7321E-08; max=  9.6746E-08
   0.0833  0.0833  0.1250    1  9.67460E-08 kpt; spin; max resid(k); each band:
 3.32E-08 3.76E-08 2.64E-08 3.54E-08 2.56E-08 5.55E-08 4.05E-08 6.54E-08
 3.50E-08 3.87E-08 4.24E-08 5.09E-08 5.61E-08 1.90E-08 9.67E-08 9.10E-08
   0.2500  0.0833  0.1250    1  9.63845E-08 kpt; spin; max resid(k); each band:
 5.30E-08 3.48E-08 3.10E-08 3.39E-08 2.88E-08 3.01E-08 3.32E-08 2.39E-08
 2.59E-08 6.33E-08 4.20E-08 6.12E-08 9.64E-08 6.33E-08 9.07E-08 5.46E-08
   0.4167  0.0833  0.1250    1  5.64488E-08 kpt; spin; max resid(k); each band:
 4.99E-08 2.91E-08 3.44E-08 4.38E-08 2.40E-08 3.52E-08 4.15E-08 3.65E-08
 3.33E-08 4.02E-08 5.51E-08 4.76E-08 5.64E-08 5.41E-08 3.70E-08 4.45E-08
   0.0833  0.2500  0.1250    1  7.49849E-08 kpt; spin; max resid(k); each band:
 5.31E-08 3.84E-08 2.50E-08 3.31E-08 3.62E-08 3.66E-08 6.50E-08 6.99E-08
 5.08E-08 3.40E-08 5.10E-08 4.19E-08 6.74E-08 5.52E-08 7.50E-08 5.12E-08
   0.2500  0.2500  0.1250    1  8.02845E-08 kpt; spin; max resid(k); each band:
 5.36E-08 3.39E-08 3.30E-08 2.33E-08 3.19E-08 3.91E-08 3.40E-08 5.90E-08
 3.66E-08 4.75E-08 6.68E-08 5.15E-08 7.62E-08 8.03E-08 7.13E-08 7.28E-08
   0.4167  0.2500  0.1250    1  8.56369E-08 kpt; spin; max resid(k); each band:
 2.78E-08 2.60E-08 4.06E-08 2.91E-08 4.17E-08 5.03E-08 4.09E-08 2.59E-08
 4.77E-08 6.33E-08 6.62E-08 6.19E-08 7.76E-08 8.56E-08 7.77E-08 7.14E-08
   0.0833  0.4167  0.1250    1  8.18475E-08 kpt; spin; max resid(k); each band:
 2.26E-08 3.85E-08 3.33E-08 2.97E-08 3.67E-08 3.56E-08 8.18E-08 5.77E-08
 2.82E-08 4.99E-08 5.51E-08 5.18E-08 3.35E-08 5.21E-08 6.44E-08 6.50E-08
   0.2500  0.4167  0.1250    1  9.42121E-08 kpt; spin; max resid(k); each band:
 2.42E-08 2.45E-08 2.86E-08 3.42E-08 3.57E-08 2.92E-08 4.66E-08 5.07E-08
 5.78E-08 4.78E-08 6.31E-08 5.62E-08 6.89E-08 6.59E-08 7.65E-08 9.42E-08
   0.4167  0.4167  0.1250    1  8.74522E-08 kpt; spin; max resid(k); each band:
 2.24E-08 1.83E-08 3.59E-08 4.56E-08 4.05E-08 4.84E-08 4.70E-08 4.46E-08
 3.19E-08 2.63E-08 5.74E-08 8.33E-08 7.29E-08 8.75E-08 3.53E-08 6.89E-08
   0.0833  0.0833  0.3750    1  8.69186E-08 kpt; spin; max resid(k); each band:
 2.78E-08 4.81E-08 2.90E-08 5.48E-08 4.83E-08 4.53E-08 3.53E-08 4.23E-08
 3.45E-08 3.51E-08 3.85E-08 4.03E-08 8.69E-08 7.62E-08 7.69E-08 7.22E-08
   0.2500  0.0833  0.3750    1  7.84726E-08 kpt; spin; max resid(k); each band:
 5.11E-08 2.44E-08 3.35E-08 3.47E-08 3.47E-08 1.06E-08 2.67E-08 3.63E-08
 3.52E-08 5.32E-08 4.73E-08 5.47E-08 7.85E-08 7.24E-08 7.74E-08 6.36E-08
   0.4167  0.0833  0.3750    1  9.21795E-08 kpt; spin; max resid(k); each band:
 2.46E-08 2.63E-08 3.36E-08 2.75E-08 3.10E-08 2.05E-08 4.26E-08 2.57E-08
 4.05E-08 5.27E-08 5.73E-08 5.41E-08 8.91E-08 7.26E-08 9.22E-08 5.72E-08
   0.0833  0.2500  0.3750    1  8.61413E-08 kpt; spin; max resid(k); each band:
 5.53E-08 3.65E-08 2.76E-08 2.59E-08 4.86E-08 4.92E-08 5.71E-08 4.75E-08
 4.46E-08 2.96E-08 3.00E-08 5.11E-08 5.95E-08 5.55E-08 8.61E-08 8.13E-08
   0.2500  0.2500  0.3750    1  6.75862E-08 kpt; spin; max resid(k); each band:
 1.98E-08 2.49E-08 3.38E-08 3.94E-08 3.48E-08 2.65E-08 5.61E-08 3.34E-08
 2.97E-08 4.32E-08 5.55E-08 5.53E-08 6.29E-08 6.76E-08 5.31E-08 6.65E-08
   0.4167  0.2500  0.3750    1  9.48564E-08 kpt; spin; max resid(k); each band:
 2.41E-08 3.03E-08 2.35E-08 2.12E-08 5.12E-08 3.78E-08 5.67E-08 3.87E-08
 3.63E-08 4.87E-08 6.83E-08 6.06E-08 9.49E-08 7.22E-08 6.97E-08 5.28E-08
   0.0833  0.4167  0.3750    1  6.70759E-08 kpt; spin; max resid(k); each band:
 2.21E-08 2.32E-08 3.91E-08 2.31E-08 5.06E-08 4.55E-08 3.87E-08 4.91E-08
 3.11E-08 5.78E-08 2.95E-08 4.30E-08 4.86E-08 5.06E-08 5.73E-08 6.71E-08
   0.2500  0.4167  0.3750    1  6.22815E-08 kpt; spin; max resid(k); each band:
 1.93E-08 1.70E-08 3.44E-08 4.47E-08 4.59E-08 3.87E-08 3.88E-08 4.10E-08
 4.03E-08 5.89E-08 4.12E-08 5.78E-08 4.99E-08 6.05E-08 5.17E-08 6.23E-08
   0.4167  0.4167  0.3750    1  8.99758E-08 kpt; spin; max resid(k); each band:
 1.90E-08 1.25E-08 4.02E-08 3.60E-08 2.97E-08 3.28E-08 5.74E-08 3.17E-08
 6.89E-08 6.57E-08 6.60E-08 9.00E-08 6.64E-08 6.13E-08 5.30E-08 5.76E-08
 reduced coordinates (array xred) for    2 atoms
       0.000000000000      0.000000000000      0.000000000000
       0.500000000000      0.000000000000      0.500000000000
 rms dE/dt=  0.0000E+00; max dE/dt=  0.0000E+00; dE/dt below (all hartree)
    1       0.000000000000      0.000000000000      0.000000000000
    2       0.000000000000      0.000000000000      0.000000000000

 cartesian coordinates (angstrom) at end:
    1      0.00000000000000     0.00000000000000     0.00000000000000
    2      0.87314239417350    -0.87314239417350     1.74628478834700

 cartesian forces (hartree/bohr) at end:
    1     -0.00000000000000    -0.00000000000000    -0.00000000000000
    2     -0.00000000000000    -0.00000000000000    -0.00000000000000
 frms,max,avg= 0.0000000E+00 0.0000000E+00   0.000E+00  0.000E+00  0.000E+00 h/b

 cartesian forces (eV/Angstrom) at end:
    1     -0.00000000000000    -0.00000000000000    -0.00000000000000
    2     -0.00000000000000    -0.00000000000000    -0.00000000000000
 frms,max,avg= 0.0000000E+00 0.0000000E+00   0.000E+00  0.000E+00  0.000E+00 e/A
 length scales=  6.600000000000  6.600000000000  6.600000000000 bohr
              =  3.492569576694  3.492569576694  3.492569576694 angstroms
 prteigrs : about to open file tspin_2o_EIG
 Fermi (or HOMO) energy (hartree) =  -0.27770   Average Vxc (hartree)=  -0.53587
 Eigenvalues (hartree) for nkpt=  18  k points:
 kpt#   1, nband= 16, wtk=  0.05556, kpt=  0.0833  0.0833  0.1250 (reduced coord)
  -0.60539  -0.47491  -0.42613  -0.39020  -0.35973  -0.34375  -0.28914  -0.28834
  -0.25279  -0.24040  -0.22929  -0.14213   0.20265   0.26202   0.26641   0.62158
      occupation numbers for kpt#   1
   2.00000   2.00000   2.00000   1.99997   1.99945   1.99729   1.51668   1.48679
   0.15287   0.04683   0.01567   0.00000   0.00000   0.00000   0.00000   0.00000
 kpt#   2, nband= 16, wtk=  0.05556, kpt=  0.2500  0.0833  0.1250 (reduced coord)
  -0.55300  -0.44238  -0.41102  -0.38520  -0.35896  -0.34501  -0.31652  -0.30489
  -0.27799  -0.25832  -0.23355  -0.04563   0.06861   0.22469   0.34120   0.41757
      occupation numbers for kpt#   2
   2.00000   2.00000   2.00000   1.99996   1.99941   1.99762   1.95958   1.87623
   1.01442   0.25160   0.02390   0.00000   0.00000   0.00000   0.00000   0.00000
 kpt#   3, nband= 16, wtk=  0.05556, kpt=  0.4167  0.0833  0.1250 (reduced coord)
  -0.47310  -0.41942  -0.40186  -0.37465  -0.36677  -0.36009  -0.32611  -0.31531
  -0.28587  -0.25956  -0.21434  -0.12030   0.09608   0.22841   0.29105   0.42487
      occupation numbers for kpt#   3
   2.00000   2.00000   1.99999   1.99988   1.99973   1.99947   1.98431   1.95450
   1.38720   0.28015   0.00353   0.00000   0.00000   0.00000   0.00000   0.00000
 kpt#   4, nband= 16, wtk=  0.05556, kpt=  0.0833  0.2500  0.1250 (reduced coord)
  -0.55707  -0.46132  -0.41055  -0.40479  -0.38663  -0.31637  -0.29615  -0.28425
  -0.25974  -0.24836  -0.21357  -0.08792   0.06496   0.18039   0.33727   0.47047
      occupation numbers for kpt#   4
   2.00000   2.00000   2.00000   1.99999   1.99996   1.95901   1.72692   1.31601
   0.28458   0.10099   0.00327   0.00000   0.00000   0.00000   0.00000   0.00000
 kpt#   5, nband= 16, wtk=  0.05556, kpt=  0.2500  0.2500  0.1250 (reduced coord)
  -0.51142  -0.43069  -0.40146  -0.39453  -0.37289  -0.32805  -0.30971  -0.28609
  -0.28464  -0.25971  -0.25188   0.01128   0.11692   0.12348   0.23711   0.47293
      occupation numbers for kpt#   5
   2.00000   2.00000   1.99999   1.99998   1.99985   1.98707   1.92171   1.39640
   1.33361   0.28373   0.14060   0.00000   0.00000   0.00000   0.00000   0.00000
 kpt#   6, nband= 16, wtk=  0.05556, kpt=  0.4167  0.2500  0.1250 (reduced coord)
  -0.45276  -0.41751  -0.39486  -0.38279  -0.33940  -0.33139  -0.32211  -0.30105
  -0.28883  -0.27753  -0.19888  -0.07671   0.12434   0.19014   0.33199   0.33459
      occupation numbers for kpt#   6
   2.00000   2.00000   1.99998   1.99995   1.99583   1.99072   1.97670   1.82345
   1.50526   0.99147   0.00075   0.00000   0.00000   0.00000   0.00000   0.00000
 kpt#   7, nband= 16, wtk=  0.05556, kpt=  0.0833  0.4167  0.1250 (reduced coord)
  -0.48809  -0.45150  -0.43373  -0.40360  -0.38450  -0.33457  -0.28390  -0.26860
  -0.25473  -0.21966  -0.19890  -0.09472  -0.00773   0.09781   0.39822   0.44831
      occupation numbers for kpt#   7
   2.00000   2.00000   2.00000   1.99999   1.99995   1.99324   1.30039   0.57380
   0.18260   0.00601   0.00076   0.00000   0.00000   0.00000   0.00000   0.00000
 kpt#   8, nband= 16, wtk=  0.05556, kpt=  0.2500  0.4167  0.1250 (reduced coord)
  -0.45388  -0.42140  -0.41035  -0.40669  -0.37468  -0.35446  -0.29044  -0.27636
  -0.24818  -0.22381  -0.21270  -0.06386   0.08084   0.14853   0.27099   0.38422
      occupation numbers for kpt#   8
   2.00000   2.00000   2.00000   1.99999   1.99988   1.99907   1.56278   0.93298
   0.09924   0.00908   0.00300   0.00000   0.00000   0.00000   0.00000   0.00000
 kpt#   9, nband= 16, wtk=  0.05556, kpt=  0.4167  0.4167  0.1250 (reduced coord)
  -0.44069  -0.42342  -0.39850  -0.37964  -0.34656  -0.32631  -0.31971  -0.30817
  -0.23819  -0.22474  -0.14611  -0.00310   0.00596   0.10275   0.30706   0.38828
      occupation numbers for kpt#   9
   2.00000   2.00000   1.99999   1.99993   1.99796   1.98463   1.97048   1.90930
   0.03774   0.00997   0.00000   0.00000   0.00000   0.00000   0.00000   0.00000
 kpt#  10, nband= 16, wtk=  0.05556, kpt=  0.0833  0.0833  0.3750 (reduced coord)
  -0.54631  -0.47172  -0.40253  -0.38560  -0.35575  -0.33535  -0.31644  -0.30761
  -0.28480  -0.26944  -0.24964  -0.24311   0.35651   0.36170   0.43460   0.49100
      occupation numbers for kpt#  10
   2.00000   2.00000   1.99999   1.99996   1.99918   1.99375   1.95928   1.90427
   1.34076   0.60866   0.11393   0.06099   0.00000   0.00000   0.00000   0.00000
 kpt#  11, nband= 16, wtk=  0.05556, kpt=  0.2500  0.0833  0.3750 (reduced coord)
  -0.50344  -0.42385  -0.40703  -0.40530  -0.36959  -0.36125  -0.33368  -0.31806
  -0.26246  -0.26047  -0.23471  -0.17804   0.15257   0.26280   0.41982   0.46784
      occupation numbers for kpt#  11
   2.00000   2.00000   2.00000   1.99999   1.99980   1.99953   1.99261   1.96527
   0.35761   0.30282   0.02678   0.00009   0.00000   0.00000   0.00000   0.00000
 kpt#  12, nband= 16, wtk=  0.05556, kpt=  0.4167  0.0833  0.3750 (reduced coord)
  -0.46664  -0.44562  -0.39699  -0.37361  -0.36676  -0.35877  -0.31292  -0.30100
  -0.24188  -0.23819  -0.22818  -0.17322   0.03818   0.09678   0.50681   0.52956
      occupation numbers for kpt#  12
   2.00000   2.00000   1.99999   1.99986   1.99973   1.99940   1.94260   1.82255
   0.05409   0.03772   0.01403   0.00006   0.00000   0.00000   0.00000   0.00000
 kpt#  13, nband= 16, wtk=  0.05556, kpt=  0.0833  0.2500  0.3750 (reduced coord)
  -0.50559  -0.45652  -0.39642  -0.38989  -0.35407  -0.32654  -0.30657  -0.30041
  -0.28257  -0.27387  -0.26127  -0.21962   0.13637   0.23524   0.42330   0.51239
      occupation numbers for kpt#  13
   2.00000   2.00000   1.99999   1.99997   1.99904   1.98498   1.89434   1.81274
   1.23882   0.81048   0.32411   0.00599   0.00000   0.00000   0.00000   0.00000
 kpt#  14, nband= 16, wtk=  0.05556, kpt=  0.2500  0.2500  0.3750 (reduced coord)
  -0.47605  -0.43216  -0.40537  -0.39857  -0.35246  -0.34197  -0.31323  -0.30014
  -0.27905  -0.25836  -0.24674  -0.14538   0.15860   0.16571   0.32874   0.34506
      occupation numbers for kpt#  14
   2.00000   2.00000   1.99999   1.99999   1.99887   1.99677   1.94429   1.80815
   1.06739   0.25255   0.08650   0.00000   0.00000   0.00000   0.00000   0.00000
 kpt#  15, nband= 16, wtk=  0.05556, kpt=  0.4167  0.2500  0.3750 (reduced coord)
  -0.45304  -0.43422  -0.42293  -0.41879  -0.32233  -0.31149  -0.27724  -0.26908
  -0.25399  -0.23432  -0.22530  -0.12170   0.02537   0.08378   0.33725   0.41330
      occupation numbers for kpt#  15
   2.00000   2.00000   2.00000   2.00000   1.97721   1.93405   0.97654   0.59384
   0.17073   0.02577   0.01055   0.00000   0.00000   0.00000   0.00000   0.00000
 kpt#  16, nband= 16, wtk=  0.05556, kpt=  0.0833  0.4167  0.3750 (reduced coord)
  -0.45050  -0.44207  -0.41103  -0.40152  -0.35213  -0.31444  -0.30809  -0.29855
  -0.28301  -0.23392  -0.21293  -0.14097  -0.05413   0.02973   0.48530   0.60168
      occupation numbers for kpt#  16
   2.00000   2.00000   2.00000   1.99999   1.99883   1.95047   1.90856   1.77880
   1.25917   0.02478   0.00307   0.00000   0.00000   0.00000   0.00000   0.00000
 kpt#  17, nband= 16, wtk=  0.05556, kpt=  0.2500  0.4167  0.3750 (reduced coord)
  -0.44947  -0.44307  -0.41347  -0.38677  -0.34196  -0.32830  -0.30674  -0.27466
  -0.25336  -0.21346  -0.20003  -0.08743  -0.03532   0.04738   0.33084   0.42353
      occupation numbers for kpt#  17
   2.00000   2.00000   2.00000   1.99996   1.99677   1.98738   1.89601   0.84871
   0.16113   0.00324   0.00085   0.00000   0.00000   0.00000   0.00000   0.00000
 kpt#  18, nband= 16, wtk=  0.05556, kpt=  0.4167  0.4167  0.3750 (reduced coord)
  -0.45727  -0.45240  -0.43346  -0.41890  -0.29802  -0.28103  -0.26549  -0.24941
  -0.22691  -0.21544  -0.15486  -0.05231  -0.01956  -0.01235   0.29106   0.30491
      occupation numbers for kpt#  18
   2.00000   2.00000   2.00000   2.00000   1.76804   1.16457   0.45536   0.11151
   0.01238   0.00394   0.00001   0.00000   0.00000   0.00000   0.00000   0.00000
 Total charge density [el/Bohr^3]
,     Maximum=    6.7712E-01  at reduced coord.    0.6111    0.0000    0.5926
,Next maximum=    6.7712E-01  at reduced coord.    0.3889    0.0000    0.5926
,     Minimum=    1.6241E-03  at reduced coord.    0.0000    0.0000    0.0000
,Next minimum=    4.0087E-03  at reduced coord.    0.5000    0.0000    0.4815
 Spin up density      [el/Bohr^3]
,     Maximum=    3.4458E-01  at reduced coord.    0.9444    0.8333    0.0000
,Next maximum=    3.4458E-01  at reduced coord.    0.0556    0.8333    0.0000
,     Minimum=    8.2193E-04  at reduced coord.    0.0000    0.0000    0.0000
,Next minimum=    1.9544E-03  at reduced coord.    0.5000    0.0000    0.4815
 Spin down density    [el/Bohr^3]
,     Maximum=    3.4934E-01  at reduced coord.    0.6111    0.9444    0.5926
,Next maximum=    3.4934E-01  at reduced coord.    0.3889    0.9444    0.5926
,     Minimum=    8.0213E-04  at reduced coord.    0.0000    0.0000    0.0000
,Next minimum=    2.0543E-03  at reduced coord.    0.5000    0.0000    0.4815
 Magnetization (spin up - spin down) [el/Bohr^3]
,     Maximum=    7.1321E-02  at reduced coord.    0.8889    0.8889    0.0000
,Next maximum=    7.1321E-02  at reduced coord.    0.1111    0.8889    0.0000
,     Minimum=   -7.0900E-02  at reduced coord.    0.3889    0.1111    0.4815
,Next minimum=   -7.0900E-02  at reduced coord.    0.6111    0.1111    0.4815
 Relative magnetization (=zeta, between -1 and 1)
,     Maximum=    1.2085E-01  at reduced coord.    0.8889    0.8889    0.0000
,Next maximum=    1.2085E-01  at reduced coord.    0.1111    0.8889    0.0000
,     Minimum=   -1.1860E-01  at reduced coord.    0.3889    0.1111    0.4815
,Next minimum=   -1.1860E-01  at reduced coord.    0.6111    0.1111    0.4815

--------------------------------------------------------------------------------
 Components of total free energy (in Hartree) :

    Kinetic energy  =  4.93908294058954E+01
    Hartree energy  =  5.32635834907554E+00
    XC energy       = -2.10643485261726E+01
    Ewald energy    = -4.34537234203633E+01
    PspCore energy  =  1.38092699089248E+01
    Loc. psp. energy=  3.22521888423258E+00
    NL   psp  energy= -5.64521006043118E+01
    >>>>> Internal E= -4.92184960027193E+01

    -kT*entropy     = -3.04625979774434E-02
    >>>>>>>>> Etotal= -4.92489586006968E+01

 Other information on the energy :
    Total energy(eV)= -1.34013231718881E+03 ; Band energy (Ha)=  -6.0435276631E+00
--------------------------------------------------------------------------------

 Cartesian components of stress tensor (hartree/bohr^3)
  sigma(1 1)=  2.01067737E-02  sigma(3 2)=  0.00000000E+00
  sigma(2 2)=  2.01067737E-02  sigma(3 1)=  0.00000000E+00
  sigma(3 3)=  1.83386112E-02  sigma(2 1)=  7.07138467E-04

-Cartesian components of stress tensor (GPa)         [Pressure= -5.7422E+02 GPa]
- sigma(1 1)=  5.91561605E+02  sigma(3 2)=  0.00000000E+00
- sigma(2 2)=  5.91561605E+02  sigma(3 1)=  0.00000000E+00
- sigma(3 3)=  5.39540479E+02  sigma(2 1)=  2.08047285E+01

== END DATASET(S) ==============================================================
================================================================================
  
 -outvars: echo values of variables after computation  --------
     acell    6.6000000000E+00  6.6000000000E+00  6.6000000000E+00 Bohr
       amu    5.58470000E+01
      ecut    1.80000000E+01 Hartree
    etotal   -4.9248958601E+01
     fcart   -0.0000000000E+00 -0.0000000000E+00 -0.0000000000E+00
             -0.0000000000E+00 -0.0000000000E+00 -0.0000000000E+00
      iscf         5
       kpt    8.33333333E-02  8.33333333E-02  1.25000000E-01
              2.50000000E-01  8.33333333E-02  1.25000000E-01
              4.16666667E-01  8.33333333E-02  1.25000000E-01
              8.33333333E-02  2.50000000E-01  1.25000000E-01
              2.50000000E-01  2.50000000E-01  1.25000000E-01
              4.16666667E-01  2.50000000E-01  1.25000000E-01
              8.33333333E-02  4.16666667E-01  1.25000000E-01
              2.50000000E-01  4.16666667E-01  1.25000000E-01
              4.16666667E-01  4.16666667E-01  1.25000000E-01
              8.33333333E-02  8.33333333E-02  3.75000000E-01
              2.50000000E-01  8.33333333E-02  3.75000000E-01
              4.16666667E-01  8.33333333E-02  3.75000000E-01
              8.33333333E-02  2.50000000E-01  3.75000000E-01
              2.50000000E-01  2.50000000E-01  3.75000000E-01
              4.16666667E-01  2.50000000E-01  3.75000000E-01
              8.33333333E-02  4.16666667E-01  3.75000000E-01
              2.50000000E-01  4.16666667E-01  3.75000000E-01
              4.16666667E-01  4.16666667E-01  3.75000000E-01
   kptrlen    2.64000000E+01
    kptopt         1
  kptrlatt    6  0  0   0  6  0   0  0  4
P    mkmem        18
     natom         2
     nband        16
     ngfft        18      18      27
      nkpt        18
    nspden         2
     nstep        70
      nsym        16
    ntypat         1
       occ    2.000000  2.000000  1.999999  1.999974  1.999452  1.997294
              1.516676  1.486794  0.152874  0.046826  0.015669  0.000003
              0.000000  0.000000  0.000000  0.000000
              2.000000  2.000000  1.999997  1.999957  1.999408  1.997616
              1.959582  1.876225  1.014420  0.251604  0.023901  0.000000
              0.000000  0.000000  0.000000  0.000000
              2.000000  1.999999  1.999992  1.999877  1.999729  1.999472
              1.984313  1.954496  1.387199  0.280148  0.003534  0.000000
              0.000000  0.000000  0.000000  0.000000
              2.000000  2.000000  1.999997  1.999994  1.999963  1.959013
              1.726924  1.316007  0.284576  0.100988  0.003272  0.000000
              0.000000  0.000000  0.000000  0.000000
              2.000000  2.000000  1.999992  1.999983  1.999853  1.987065
              1.921711  1.396400  1.333605  0.283732  0.140604  0.000000
              0.000000  0.000000  0.000000  0.000000
              2.000000  1.999998  1.999984  1.999945  1.995825  1.990717
              1.976699  1.823447  1.505257  0.991467  0.000754  0.000000
              0.000000  0.000000  0.000000  0.000000
              2.000000  2.000000  2.000000  1.999993  1.999954  1.993240
              1.300386  0.573800  0.182604  0.006013  0.000756  0.000000
              0.000000  0.000000  0.000000  0.000000
              2.000000  1.999999  1.999997  1.999995  1.999877  1.999072
              1.562775  0.932977  0.099241  0.009083  0.003002  0.000000
              0.000000  0.000000  0.000000  0.000000
              2.000000  1.999999  1.999989  1.999925  1.997957  1.984632
              1.970481  1.909298  0.037743  0.009970  0.000004  0.000000
              0.000000  0.000000  0.000000  0.000000
              2.000000  2.000000  1.999992  1.999959  1.999185  1.993747
              1.959285  1.904267  1.340765  0.608662  0.113932  0.060992
              0.000000  0.000000  0.000000  0.000000
              2.000000  1.999999  1.999995  1.999994  1.999796  1.999530
              1.992612  1.965271  0.357611  0.302822  0.026776  0.000094
              0.000000  0.000000  0.000000  0.000000
              2.000000  2.000000  1.999987  1.999863  1.999729  1.999397
              1.942601  1.822545  0.054091  0.037721  0.014026  0.000058
              0.000000  0.000000  0.000000  0.000000
              2.000000  2.000000  1.999986  1.999973  1.999035  1.984975
              1.894335  1.812737  1.238816  0.810484  0.324112  0.005986
              0.000000  0.000000  0.000000  0.000000
              2.000000  2.000000  1.999994  1.999989  1.998867  1.996770
              1.944288  1.808154  1.067386  0.252548  0.086505  0.000004
              0.000000  0.000000  0.000000  0.000000
              2.000000  2.000000  1.999999  1.999999  1.977206  1.934053
              0.976542  0.593836  0.170728  0.025766  0.010545  0.000000
              0.000000  0.000000  0.000000  0.000000
              2.000000  2.000000  1.999997  1.999992  1.998829  1.950473
              1.908555  1.778803  1.259168  0.024778  0.003072  0.000002
              0.000000  0.000000  0.000000  0.000000
              2.000000  2.000000  1.999997  1.999963  1.996766  1.987381
              1.896007  0.848708  0.161135  0.003236  0.000846  0.000000
              0.000000  0.000000  0.000000  0.000000
              2.000000  2.000000  2.000000  1.999999  1.768043  1.164572
              0.455355  0.111510  0.012376  0.003945  0.000009  0.000000
              0.000000  0.000000  0.000000  0.000000
    occopt         3
    prtdos         1
     rprim    5.0000000000E-01 -5.0000000000E-01  0.0000000000E+00
              5.0000000000E-01  5.0000000000E-01  0.0000000000E+00
              0.0000000000E+00  0.0000000000E+00  1.0000000000E+00
    shiftk    5.00000000E-01  5.00000000E-01  5.00000000E-01
   spgroup        47
    spinat    0.0000000000E+00  0.0000000000E+00  4.0000000000E+00
              0.0000000000E+00  0.0000000000E+00 -4.0000000000E+00
    strten    2.0106773674E-02  2.0106773674E-02  1.8338611233E-02
              0.0000000000E+00  0.0000000000E+00  7.0713846709E-04
    symafm    1 -1  1  -1  1 -1   1 -1  1      -1  1 -1   1 -1  1  -1
    symrel    1  0  0   0  1  0   0  0  1       1  0  0   0  1  0   0  0  1
             -1  0  0   0 -1  0   0  0 -1      -1  0  0   0 -1  0   0  0 -1
             -1  0  0   0  1  0   0  0 -1      -1  0  0   0  1  0   0  0 -1
              1  0  0   0 -1  0   0  0  1       1  0  0   0 -1  0   0  0  1
             -1  0  0   0 -1  0   0  0  1      -1  0  0   0 -1  0   0  0  1
              1  0  0   0  1  0   0  0 -1       1  0  0   0  1  0   0  0 -1
              1  0  0   0 -1  0   0  0 -1       1  0  0   0 -1  0   0  0 -1
             -1  0  0   0  1  0   0  0  1      -1  0  0   0  1  0   0  0  1
     tnons    0.0000000  0.0000000  0.0000000     0.5000000  0.0000000  0.5000000
              0.0000000  0.0000000  0.0000000     0.5000000  0.0000000  0.5000000
              0.0000000  0.0000000  0.0000000     0.5000000  0.0000000  0.5000000
              0.0000000  0.0000000  0.0000000     0.5000000  0.0000000  0.5000000
              0.0000000  0.0000000  0.0000000     0.5000000  0.0000000  0.5000000
              0.0000000  0.0000000  0.0000000     0.5000000  0.0000000  0.5000000
              0.0000000  0.0000000  0.0000000     0.5000000  0.0000000  0.5000000
              0.0000000  0.0000000  0.0000000     0.5000000  0.0000000  0.5000000
    tolwfr    1.00000000E-07
    tsmear    1.00000000E-02 Hartree
     typat    1  1
       wtk      0.05556    0.05556    0.05556    0.05556    0.05556    0.05556
                0.05556    0.05556    0.05556    0.05556    0.05556    0.05556
                0.05556    0.05556    0.05556    0.05556    0.05556    0.05556
    xangst    0.0000000000E+00  0.0000000000E+00  0.0000000000E+00
              8.7314239417E-01 -8.7314239417E-01  1.7462847883E+00
     xcart    0.0000000000E+00  0.0000000000E+00  0.0000000000E+00
              1.6500000000E+00 -1.6500000000E+00  3.3000000000E+00
      xred    0.0000000000E+00  0.0000000000E+00  0.0000000000E+00
              5.0000000000E-01  0.0000000000E+00  5.0000000000E-01
     znucl     26.00000

================================================================================

- Total cpu        time (s,m,h):         48.7        0.81      0.014
- Total wall clock time (s,m,h):         48.7        0.81      0.014

- For major independent code sections, cpu and wall times (sec),
- as well as % of the total time and number of calls 

- routine                 cpu     %       wall     %      number of calls 
-                                                          (-1=no count)
- fourwf(pot)           20.474  42.0     20.498  42.1          41391
- projbd                 4.065   8.3      4.020   8.2          60894
- nonlop(apply)          3.466   7.1      3.432   7.0          41391
- fourwf(den)            2.072   4.3      2.092   4.3           7544
- vtowfk(ssdiag)         1.845   3.8      1.861   3.8             -1
- nonlop(forces)         1.141   2.3      1.152   2.4          10368
- getghc-other           0.731   1.5      0.729   1.5             -1
- timing timab           0.506   1.0      0.505   1.0             12
- status                 0.354   0.7      0.370   0.8          11135
- vtorho(4)-mkrho-       0.347   0.7      0.351   0.7             72
- forces                 0.346   0.7      0.339   0.7             36
- pspini                 0.255   0.5      0.254   0.5              1
- 58   others            1.239   2.5      1.230   2.5

- subtotal              36.841  75.6     36.833  75.6

================================================================================

 Calculation completed.
.Delivered    0 WARNINGs and   0 COMMENTs to log file.
+Overall time at end (sec) : cpu=         48.7  wall=         48.7
